V -t * -v 1.0a5 -a 0
A -t * -n 1 -p 0 -o 0x7fffffff -c 30 -a 1
A -t * -h 1 -m 1073741823 -s 0
n -t * -a 0 -s 0 -S UP -v circle -c black -i black
n -t * -a 1 -s 1 -S UP -v circle -c black -i black
n -t * -a 2 -s 2 -S UP -v circle -c black -i black
n -t * -a 3 -s 3 -S UP -v circle -c black -i black
l -t * -s 0 -d 2 -S UP -r 100000000 -D 0.01 -c black -o right-down
l -t * -s 1 -d 2 -S UP -r 100000000 -D 0.01 -c black -o right-up
l -t * -s 2 -d 3 -S UP -r 1000000 -D 0.01 -c black -o right
+ -t 1 -s 0 -d 2 -p tcp -e 40 -c 0 -i 0 -a 0 -x {0.0 3.0 0 ------- null}
- -t 1 -s 0 -d 2 -p tcp -e 40 -c 0 -i 0 -a 0 -x {0.0 3.0 0 ------- null}
h -t 1 -s 0 -d 2 -p tcp -e 40 -c 0 -i 0 -a 0 -x {0.0 3.0 -1 ------- null}
+ -t 1 -s 1 -d 2 -p tcp -e 40 -c 0 -i 1 -a 0 -x {1.0 3.1 0 ------- null}
- -t 1 -s 1 -d 2 -p tcp -e 40 -c 0 -i 1 -a 0 -x {1.0 3.1 0 ------- null}
h -t 1 -s 1 -d 2 -p tcp -e 40 -c 0 -i 1 -a 0 -x {1.0 3.1 -1 ------- null}
r -t 1.0100032 -s 0 -d 2 -p tcp -e 40 -c 0 -i 0 -a 0 -x {0.0 3.0 0 ------- null}
+ -t 1.0100032 -s 2 -d 3 -p tcp -e 40 -c 0 -i 0 -a 0 -x {0.0 3.0 0 ------- null}
- -t 1.0100032 -s 2 -d 3 -p tcp -e 40 -c 0 -i 0 -a 0 -x {0.0 3.0 0 ------- null}
h -t 1.0100032 -s 2 -d 3 -p tcp -e 40 -c 0 -i 0 -a 0 -x {0.0 3.0 -1 ------- null}
r -t 1.0100032 -s 1 -d 2 -p tcp -e 40 -c 0 -i 1 -a 0 -x {1.0 3.1 0 ------- null}
+ -t 1.0100032 -s 2 -d 3 -p tcp -e 40 -c 0 -i 1 -a 0 -x {1.0 3.1 0 ------- null}
- -t 1.0103232 -s 2 -d 3 -p tcp -e 40 -c 0 -i 1 -a 0 -x {1.0 3.1 0 ------- null}
h -t 1.0103232 -s 2 -d 3 -p tcp -e 40 -c 0 -i 1 -a 0 -x {1.0 3.1 -1 ------- null}
r -t 1.0203232 -s 2 -d 3 -p tcp -e 40 -c 0 -i 0 -a 0 -x {0.0 3.0 0 ------- null}
+ -t 1.0203232 -s 3 -d 2 -p ack -e 40 -c 0 -i 2 -a 0 -x {3.0 0.0 0 ------- null}
- -t 1.0203232 -s 3 -d 2 -p ack -e 40 -c 0 -i 2 -a 0 -x {3.0 0.0 0 ------- null}
h -t 1.0203232 -s 3 -d 2 -p ack -e 40 -c 0 -i 2 -a 0 -x {3.0 0.0 -1 ------- null}
r -t 1.0206432 -s 2 -d 3 -p tcp -e 40 -c 0 -i 1 -a 0 -x {1.0 3.1 0 ------- null}
+ -t 1.0206432 -s 3 -d 2 -p ack -e 40 -c 0 -i 3 -a 0 -x {3.1 1.0 0 ------- null}
- -t 1.0206432 -s 3 -d 2 -p ack -e 40 -c 0 -i 3 -a 0 -x {3.1 1.0 0 ------- null}
h -t 1.0206432 -s 3 -d 2 -p ack -e 40 -c 0 -i 3 -a 0 -x {3.1 1.0 -1 ------- null}
r -t 1.0306432 -s 3 -d 2 -p ack -e 40 -c 0 -i 2 -a 0 -x {3.0 0.0 0 ------- null}
+ -t 1.0306432 -s 2 -d 0 -p ack -e 40 -c 0 -i 2 -a 0 -x {3.0 0.0 0 ------- null}
- -t 1.0306432 -s 2 -d 0 -p ack -e 40 -c 0 -i 2 -a 0 -x {3.0 0.0 0 ------- null}
h -t 1.0306432 -s 2 -d 0 -p ack -e 40 -c 0 -i 2 -a 0 -x {3.0 0.0 -1 ------- null}
r -t 1.0309632 -s 3 -d 2 -p ack -e 40 -c 0 -i 3 -a 0 -x {3.1 1.0 0 ------- null}
+ -t 1.0309632 -s 2 -d 1 -p ack -e 40 -c 0 -i 3 -a 0 -x {3.1 1.0 0 ------- null}
- -t 1.0309632 -s 2 -d 1 -p ack -e 40 -c 0 -i 3 -a 0 -x {3.1 1.0 0 ------- null}
h -t 1.0309632 -s 2 -d 1 -p ack -e 40 -c 0 -i 3 -a 0 -x {3.1 1.0 -1 ------- null}
r -t 1.0406464 -s 2 -d 0 -p ack -e 40 -c 0 -i 2 -a 0 -x {3.0 0.0 0 ------- null}
+ -t 1.0406464 -s 0 -d 2 -p tcp -e 1540 -c 0 -i 4 -a 0 -x {0.0 3.0 1 ------- null}
- -t 1.0406464 -s 0 -d 2 -p tcp -e 1540 -c 0 -i 4 -a 0 -x {0.0 3.0 1 ------- null}
h -t 1.0406464 -s 0 -d 2 -p tcp -e 1540 -c 0 -i 4 -a 0 -x {0.0 3.0 -1 ------- null}
+ -t 1.0406464 -s 0 -d 2 -p tcp -e 1540 -c 0 -i 5 -a 0 -x {0.0 3.0 2 ------- null}
- -t 1.0407696 -s 0 -d 2 -p tcp -e 1540 -c 0 -i 5 -a 0 -x {0.0 3.0 2 ------- null}
h -t 1.0407696 -s 0 -d 2 -p tcp -e 1540 -c 0 -i 5 -a 0 -x {0.0 3.0 -1 ------- null}
r -t 1.0409664 -s 2 -d 1 -p ack -e 40 -c 0 -i 3 -a 0 -x {3.1 1.0 0 ------- null}
+ -t 1.0409664 -s 1 -d 2 -p tcp -e 1540 -c 0 -i 6 -a 0 -x {1.0 3.1 1 ------- null}
- -t 1.0409664 -s 1 -d 2 -p tcp -e 1540 -c 0 -i 6 -a 0 -x {1.0 3.1 1 ------- null}
h -t 1.0409664 -s 1 -d 2 -p tcp -e 1540 -c 0 -i 6 -a 0 -x {1.0 3.1 -1 ------- null}
+ -t 1.0409664 -s 1 -d 2 -p tcp -e 1540 -c 0 -i 7 -a 0 -x {1.0 3.1 2 ------- null}
- -t 1.0410896 -s 1 -d 2 -p tcp -e 1540 -c 0 -i 7 -a 0 -x {1.0 3.1 2 ------- null}
h -t 1.0410896 -s 1 -d 2 -p tcp -e 1540 -c 0 -i 7 -a 0 -x {1.0 3.1 -1 ------- null}
r -t 1.0507696 -s 0 -d 2 -p tcp -e 1540 -c 0 -i 4 -a 0 -x {0.0 3.0 1 ------- null}
+ -t 1.0507696 -s 2 -d 3 -p tcp -e 1540 -c 0 -i 4 -a 0 -x {0.0 3.0 1 ------- null}
- -t 1.0507696 -s 2 -d 3 -p tcp -e 1540 -c 0 -i 4 -a 0 -x {0.0 3.0 1 ------- null}
h -t 1.0507696 -s 2 -d 3 -p tcp -e 1540 -c 0 -i 4 -a 0 -x {0.0 3.0 -1 ------- null}
r -t 1.0508928 -s 0 -d 2 -p tcp -e 1540 -c 0 -i 5 -a 0 -x {0.0 3.0 2 ------- null}
+ -t 1.0508928 -s 2 -d 3 -p tcp -e 1540 -c 0 -i 5 -a 0 -x {0.0 3.0 2 ------- null}
r -t 1.0510896 -s 1 -d 2 -p tcp -e 1540 -c 0 -i 6 -a 0 -x {1.0 3.1 1 ------- null}
+ -t 1.0510896 -s 2 -d 3 -p tcp -e 1540 -c 0 -i 6 -a 0 -x {1.0 3.1 1 ------- null}
d -t 1.0510896 -s 2 -d 3 -p tcp -e 1540 -c 0 -i 6 -a 0 -x {1.0 3.1 1 ------- null}
r -t 1.0512128 -s 1 -d 2 -p tcp -e 1540 -c 0 -i 7 -a 0 -x {1.0 3.1 2 ------- null}
+ -t 1.0512128 -s 2 -d 3 -p tcp -e 1540 -c 0 -i 7 -a 0 -x {1.0 3.1 2 ------- null}
d -t 1.0512128 -s 2 -d 3 -p tcp -e 1540 -c 0 -i 7 -a 0 -x {1.0 3.1 2 ------- null}
- -t 1.0630896 -s 2 -d 3 -p tcp -e 1540 -c 0 -i 5 -a 0 -x {0.0 3.0 2 ------- null}
h -t 1.0630896 -s 2 -d 3 -p tcp -e 1540 -c 0 -i 5 -a 0 -x {0.0 3.0 -1 ------- null}
r -t 1.0730896 -s 2 -d 3 -p tcp -e 1540 -c 0 -i 4 -a 0 -x {0.0 3.0 1 ------- null}
+ -t 1.0730896 -s 3 -d 2 -p ack -e 40 -c 0 -i 8 -a 0 -x {3.0 0.0 1 ------- null}
- -t 1.0730896 -s 3 -d 2 -p ack -e 40 -c 0 -i 8 -a 0 -x {3.0 0.0 1 ------- null}
h -t 1.0730896 -s 3 -d 2 -p ack -e 40 -c 0 -i 8 -a 0 -x {3.0 0.0 -1 ------- null}
r -t 1.0834096 -s 3 -d 2 -p ack -e 40 -c 0 -i 8 -a 0 -x {3.0 0.0 1 ------- null}
+ -t 1.0834096 -s 2 -d 0 -p ack -e 40 -c 0 -i 8 -a 0 -x {3.0 0.0 1 ------- null}
- -t 1.0834096 -s 2 -d 0 -p ack -e 40 -c 0 -i 8 -a 0 -x {3.0 0.0 1 ------- null}
h -t 1.0834096 -s 2 -d 0 -p ack -e 40 -c 0 -i 8 -a 0 -x {3.0 0.0 -1 ------- null}
r -t 1.0854096 -s 2 -d 3 -p tcp -e 1540 -c 0 -i 5 -a 0 -x {0.0 3.0 2 ------- null}
+ -t 1.0854096 -s 3 -d 2 -p ack -e 40 -c 0 -i 9 -a 0 -x {3.0 0.0 2 ------- null}
- -t 1.0854096 -s 3 -d 2 -p ack -e 40 -c 0 -i 9 -a 0 -x {3.0 0.0 2 ------- null}
h -t 1.0854096 -s 3 -d 2 -p ack -e 40 -c 0 -i 9 -a 0 -x {3.0 0.0 -1 ------- null}
r -t 1.0934128 -s 2 -d 0 -p ack -e 40 -c 0 -i 8 -a 0 -x {3.0 0.0 1 ------- null}
+ -t 1.0934128 -s 0 -d 2 -p tcp -e 1540 -c 0 -i 10 -a 0 -x {0.0 3.0 3 ------- null}
- -t 1.0934128 -s 0 -d 2 -p tcp -e 1540 -c 0 -i 10 -a 0 -x {0.0 3.0 3 ------- null}
h -t 1.0934128 -s 0 -d 2 -p tcp -e 1540 -c 0 -i 10 -a 0 -x {0.0 3.0 -1 ------- null}
+ -t 1.0934128 -s 0 -d 2 -p tcp -e 1540 -c 0 -i 11 -a 0 -x {0.0 3.0 4 ------- null}
- -t 1.093536 -s 0 -d 2 -p tcp -e 1540 -c 0 -i 11 -a 0 -x {0.0 3.0 4 ------- null}
h -t 1.093536 -s 0 -d 2 -p tcp -e 1540 -c 0 -i 11 -a 0 -x {0.0 3.0 -1 ------- null}
r -t 1.0957296 -s 3 -d 2 -p ack -e 40 -c 0 -i 9 -a 0 -x {3.0 0.0 2 ------- null}
+ -t 1.0957296 -s 2 -d 0 -p ack -e 40 -c 0 -i 9 -a 0 -x {3.0 0.0 2 ------- null}
- -t 1.0957296 -s 2 -d 0 -p ack -e 40 -c 0 -i 9 -a 0 -x {3.0 0.0 2 ------- null}
h -t 1.0957296 -s 2 -d 0 -p ack -e 40 -c 0 -i 9 -a 0 -x {3.0 0.0 -1 ------- null}
r -t 1.103536 -s 0 -d 2 -p tcp -e 1540 -c 0 -i 10 -a 0 -x {0.0 3.0 3 ------- null}
+ -t 1.103536 -s 2 -d 3 -p tcp -e 1540 -c 0 -i 10 -a 0 -x {0.0 3.0 3 ------- null}
- -t 1.103536 -s 2 -d 3 -p tcp -e 1540 -c 0 -i 10 -a 0 -x {0.0 3.0 3 ------- null}
h -t 1.103536 -s 2 -d 3 -p tcp -e 1540 -c 0 -i 10 -a 0 -x {0.0 3.0 -1 ------- null}
r -t 1.1036592 -s 0 -d 2 -p tcp -e 1540 -c 0 -i 11 -a 0 -x {0.0 3.0 4 ------- null}
+ -t 1.1036592 -s 2 -d 3 -p tcp -e 1540 -c 0 -i 11 -a 0 -x {0.0 3.0 4 ------- null}
r -t 1.1057328 -s 2 -d 0 -p ack -e 40 -c 0 -i 9 -a 0 -x {3.0 0.0 2 ------- null}
+ -t 1.1057328 -s 0 -d 2 -p tcp -e 1540 -c 0 -i 12 -a 0 -x {0.0 3.0 5 ------- null}
- -t 1.1057328 -s 0 -d 2 -p tcp -e 1540 -c 0 -i 12 -a 0 -x {0.0 3.0 5 ------- null}
h -t 1.1057328 -s 0 -d 2 -p tcp -e 1540 -c 0 -i 12 -a 0 -x {0.0 3.0 -1 ------- null}
+ -t 1.1057328 -s 0 -d 2 -p tcp -e 1540 -c 0 -i 13 -a 0 -x {0.0 3.0 6 ------- null}
- -t 1.105856 -s 0 -d 2 -p tcp -e 1540 -c 0 -i 13 -a 0 -x {0.0 3.0 6 ------- null}
h -t 1.105856 -s 0 -d 2 -p tcp -e 1540 -c 0 -i 13 -a 0 -x {0.0 3.0 -1 ------- null}
- -t 1.115856 -s 2 -d 3 -p tcp -e 1540 -c 0 -i 11 -a 0 -x {0.0 3.0 4 ------- null}
h -t 1.115856 -s 2 -d 3 -p tcp -e 1540 -c 0 -i 11 -a 0 -x {0.0 3.0 -1 ------- null}
r -t 1.115856 -s 0 -d 2 -p tcp -e 1540 -c 0 -i 12 -a 0 -x {0.0 3.0 5 ------- null}
+ -t 1.115856 -s 2 -d 3 -p tcp -e 1540 -c 0 -i 12 -a 0 -x {0.0 3.0 5 ------- null}
r -t 1.1159792 -s 0 -d 2 -p tcp -e 1540 -c 0 -i 13 -a 0 -x {0.0 3.0 6 ------- null}
+ -t 1.1159792 -s 2 -d 3 -p tcp -e 1540 -c 0 -i 13 -a 0 -x {0.0 3.0 6 ------- null}
d -t 1.1159792 -s 2 -d 3 -p tcp -e 1540 -c 0 -i 13 -a 0 -x {0.0 3.0 6 ------- null}
r -t 1.125856 -s 2 -d 3 -p tcp -e 1540 -c 0 -i 10 -a 0 -x {0.0 3.0 3 ------- null}
+ -t 1.125856 -s 3 -d 2 -p ack -e 40 -c 0 -i 14 -a 0 -x {3.0 0.0 3 ------- null}
- -t 1.125856 -s 3 -d 2 -p ack -e 40 -c 0 -i 14 -a 0 -x {3.0 0.0 3 ------- null}
h -t 1.125856 -s 3 -d 2 -p ack -e 40 -c 0 -i 14 -a 0 -x {3.0 0.0 -1 ------- null}
- -t 1.128176 -s 2 -d 3 -p tcp -e 1540 -c 0 -i 12 -a 0 -x {0.0 3.0 5 ------- null}
h -t 1.128176 -s 2 -d 3 -p tcp -e 1540 -c 0 -i 12 -a 0 -x {0.0 3.0 -1 ------- null}
r -t 1.136176 -s 3 -d 2 -p ack -e 40 -c 0 -i 14 -a 0 -x {3.0 0.0 3 ------- null}
+ -t 1.136176 -s 2 -d 0 -p ack -e 40 -c 0 -i 14 -a 0 -x {3.0 0.0 3 ------- null}
- -t 1.136176 -s 2 -d 0 -p ack -e 40 -c 0 -i 14 -a 0 -x {3.0 0.0 3 ------- null}
h -t 1.136176 -s 2 -d 0 -p ack -e 40 -c 0 -i 14 -a 0 -x {3.0 0.0 -1 ------- null}
r -t 1.138176 -s 2 -d 3 -p tcp -e 1540 -c 0 -i 11 -a 0 -x {0.0 3.0 4 ------- null}
+ -t 1.138176 -s 3 -d 2 -p ack -e 40 -c 0 -i 15 -a 0 -x {3.0 0.0 4 ------- null}
- -t 1.138176 -s 3 -d 2 -p ack -e 40 -c 0 -i 15 -a 0 -x {3.0 0.0 4 ------- null}
h -t 1.138176 -s 3 -d 2 -p ack -e 40 -c 0 -i 15 -a 0 -x {3.0 0.0 -1 ------- null}
r -t 1.1461792 -s 2 -d 0 -p ack -e 40 -c 0 -i 14 -a 0 -x {3.0 0.0 3 ------- null}
+ -t 1.1461792 -s 0 -d 2 -p tcp -e 1540 -c 0 -i 16 -a 0 -x {0.0 3.0 7 ------- null}
- -t 1.1461792 -s 0 -d 2 -p tcp -e 1540 -c 0 -i 16 -a 0 -x {0.0 3.0 7 ------- null}
h -t 1.1461792 -s 0 -d 2 -p tcp -e 1540 -c 0 -i 16 -a 0 -x {0.0 3.0 -1 ------- null}
+ -t 1.1461792 -s 0 -d 2 -p tcp -e 1540 -c 0 -i 17 -a 0 -x {0.0 3.0 8 ------- null}
- -t 1.1463024 -s 0 -d 2 -p tcp -e 1540 -c 0 -i 17 -a 0 -x {0.0 3.0 8 ------- null}
h -t 1.1463024 -s 0 -d 2 -p tcp -e 1540 -c 0 -i 17 -a 0 -x {0.0 3.0 -1 ------- null}
r -t 1.148496 -s 3 -d 2 -p ack -e 40 -c 0 -i 15 -a 0 -x {3.0 0.0 4 ------- null}
+ -t 1.148496 -s 2 -d 0 -p ack -e 40 -c 0 -i 15 -a 0 -x {3.0 0.0 4 ------- null}
- -t 1.148496 -s 2 -d 0 -p ack -e 40 -c 0 -i 15 -a 0 -x {3.0 0.0 4 ------- null}
h -t 1.148496 -s 2 -d 0 -p ack -e 40 -c 0 -i 15 -a 0 -x {3.0 0.0 -1 ------- null}
r -t 1.150496 -s 2 -d 3 -p tcp -e 1540 -c 0 -i 12 -a 0 -x {0.0 3.0 5 ------- null}
+ -t 1.150496 -s 3 -d 2 -p ack -e 40 -c 0 -i 18 -a 0 -x {3.0 0.0 5 ------- null}
- -t 1.150496 -s 3 -d 2 -p ack -e 40 -c 0 -i 18 -a 0 -x {3.0 0.0 5 ------- null}
h -t 1.150496 -s 3 -d 2 -p ack -e 40 -c 0 -i 18 -a 0 -x {3.0 0.0 -1 ------- null}
r -t 1.1563024 -s 0 -d 2 -p tcp -e 1540 -c 0 -i 16 -a 0 -x {0.0 3.0 7 ------- null}
+ -t 1.1563024 -s 2 -d 3 -p tcp -e 1540 -c 0 -i 16 -a 0 -x {0.0 3.0 7 ------- null}
- -t 1.1563024 -s 2 -d 3 -p tcp -e 1540 -c 0 -i 16 -a 0 -x {0.0 3.0 7 ------- null}
h -t 1.1563024 -s 2 -d 3 -p tcp -e 1540 -c 0 -i 16 -a 0 -x {0.0 3.0 -1 ------- null}
r -t 1.1564256 -s 0 -d 2 -p tcp -e 1540 -c 0 -i 17 -a 0 -x {0.0 3.0 8 ------- null}
+ -t 1.1564256 -s 2 -d 3 -p tcp -e 1540 -c 0 -i 17 -a 0 -x {0.0 3.0 8 ------- null}
r -t 1.1584992 -s 2 -d 0 -p ack -e 40 -c 0 -i 15 -a 0 -x {3.0 0.0 4 ------- null}
+ -t 1.1584992 -s 0 -d 2 -p tcp -e 1540 -c 0 -i 19 -a 0 -x {0.0 3.0 9 ------- null}
- -t 1.1584992 -s 0 -d 2 -p tcp -e 1540 -c 0 -i 19 -a 0 -x {0.0 3.0 9 ------- null}
h -t 1.1584992 -s 0 -d 2 -p tcp -e 1540 -c 0 -i 19 -a 0 -x {0.0 3.0 -1 ------- null}
+ -t 1.1584992 -s 0 -d 2 -p tcp -e 1540 -c 0 -i 20 -a 0 -x {0.0 3.0 10 ------- null}
- -t 1.1586224 -s 0 -d 2 -p tcp -e 1540 -c 0 -i 20 -a 0 -x {0.0 3.0 10 ------- null}
h -t 1.1586224 -s 0 -d 2 -p tcp -e 1540 -c 0 -i 20 -a 0 -x {0.0 3.0 -1 ------- null}
r -t 1.160816 -s 3 -d 2 -p ack -e 40 -c 0 -i 18 -a 0 -x {3.0 0.0 5 ------- null}
+ -t 1.160816 -s 2 -d 0 -p ack -e 40 -c 0 -i 18 -a 0 -x {3.0 0.0 5 ------- null}
- -t 1.160816 -s 2 -d 0 -p ack -e 40 -c 0 -i 18 -a 0 -x {3.0 0.0 5 ------- null}
h -t 1.160816 -s 2 -d 0 -p ack -e 40 -c 0 -i 18 -a 0 -x {3.0 0.0 -1 ------- null}
- -t 1.1686224 -s 2 -d 3 -p tcp -e 1540 -c 0 -i 17 -a 0 -x {0.0 3.0 8 ------- null}
h -t 1.1686224 -s 2 -d 3 -p tcp -e 1540 -c 0 -i 17 -a 0 -x {0.0 3.0 -1 ------- null}
r -t 1.1686224 -s 0 -d 2 -p tcp -e 1540 -c 0 -i 19 -a 0 -x {0.0 3.0 9 ------- null}
+ -t 1.1686224 -s 2 -d 3 -p tcp -e 1540 -c 0 -i 19 -a 0 -x {0.0 3.0 9 ------- null}
r -t 1.1687456 -s 0 -d 2 -p tcp -e 1540 -c 0 -i 20 -a 0 -x {0.0 3.0 10 ------- null}
+ -t 1.1687456 -s 2 -d 3 -p tcp -e 1540 -c 0 -i 20 -a 0 -x {0.0 3.0 10 ------- null}
d -t 1.1687456 -s 2 -d 3 -p tcp -e 1540 -c 0 -i 20 -a 0 -x {0.0 3.0 10 ------- null}
r -t 1.1708192 -s 2 -d 0 -p ack -e 40 -c 0 -i 18 -a 0 -x {3.0 0.0 5 ------- null}
+ -t 1.1708192 -s 0 -d 2 -p tcp -e 1540 -c 0 -i 21 -a 0 -x {0.0 3.0 11 ------- null}
- -t 1.1708192 -s 0 -d 2 -p tcp -e 1540 -c 0 -i 21 -a 0 -x {0.0 3.0 11 ------- null}
h -t 1.1708192 -s 0 -d 2 -p tcp -e 1540 -c 0 -i 21 -a 0 -x {0.0 3.0 -1 ------- null}
+ -t 1.1708192 -s 0 -d 2 -p tcp -e 1540 -c 0 -i 22 -a 0 -x {0.0 3.0 12 ------- null}
- -t 1.1709424 -s 0 -d 2 -p tcp -e 1540 -c 0 -i 22 -a 0 -x {0.0 3.0 12 ------- null}
h -t 1.1709424 -s 0 -d 2 -p tcp -e 1540 -c 0 -i 22 -a 0 -x {0.0 3.0 -1 ------- null}
r -t 1.1786224 -s 2 -d 3 -p tcp -e 1540 -c 0 -i 16 -a 0 -x {0.0 3.0 7 ------- null}
+ -t 1.1786224 -s 3 -d 2 -p ack -e 40 -c 0 -i 23 -a 0 -x {3.0 0.0 5 ------- null}
- -t 1.1786224 -s 3 -d 2 -p ack -e 40 -c 0 -i 23 -a 0 -x {3.0 0.0 5 ------- null}
h -t 1.1786224 -s 3 -d 2 -p ack -e 40 -c 0 -i 23 -a 0 -x {3.0 0.0 -1 ------- null}
- -t 1.1809424 -s 2 -d 3 -p tcp -e 1540 -c 0 -i 19 -a 0 -x {0.0 3.0 9 ------- null}
h -t 1.1809424 -s 2 -d 3 -p tcp -e 1540 -c 0 -i 19 -a 0 -x {0.0 3.0 -1 ------- null}
r -t 1.1809424 -s 0 -d 2 -p tcp -e 1540 -c 0 -i 21 -a 0 -x {0.0 3.0 11 ------- null}
+ -t 1.1809424 -s 2 -d 3 -p tcp -e 1540 -c 0 -i 21 -a 0 -x {0.0 3.0 11 ------- null}
r -t 1.1810656 -s 0 -d 2 -p tcp -e 1540 -c 0 -i 22 -a 0 -x {0.0 3.0 12 ------- null}
+ -t 1.1810656 -s 2 -d 3 -p tcp -e 1540 -c 0 -i 22 -a 0 -x {0.0 3.0 12 ------- null}
d -t 1.1810656 -s 2 -d 3 -p tcp -e 1540 -c 0 -i 22 -a 0 -x {0.0 3.0 12 ------- null}
r -t 1.1889424 -s 3 -d 2 -p ack -e 40 -c 0 -i 23 -a 0 -x {3.0 0.0 5 ------- null}
+ -t 1.1889424 -s 2 -d 0 -p ack -e 40 -c 0 -i 23 -a 0 -x {3.0 0.0 5 ------- null}
- -t 1.1889424 -s 2 -d 0 -p ack -e 40 -c 0 -i 23 -a 0 -x {3.0 0.0 5 ------- null}
h -t 1.1889424 -s 2 -d 0 -p ack -e 40 -c 0 -i 23 -a 0 -x {3.0 0.0 -1 ------- null}
r -t 1.1909424 -s 2 -d 3 -p tcp -e 1540 -c 0 -i 17 -a 0 -x {0.0 3.0 8 ------- null}
+ -t 1.1909424 -s 3 -d 2 -p ack -e 40 -c 0 -i 24 -a 0 -x {3.0 0.0 5 ------- null}
- -t 1.1909424 -s 3 -d 2 -p ack -e 40 -c 0 -i 24 -a 0 -x {3.0 0.0 5 ------- null}
h -t 1.1909424 -s 3 -d 2 -p ack -e 40 -c 0 -i 24 -a 0 -x {3.0 0.0 -1 ------- null}
- -t 1.1932624 -s 2 -d 3 -p tcp -e 1540 -c 0 -i 21 -a 0 -x {0.0 3.0 11 ------- null}
h -t 1.1932624 -s 2 -d 3 -p tcp -e 1540 -c 0 -i 21 -a 0 -x {0.0 3.0 -1 ------- null}
r -t 1.1989456 -s 2 -d 0 -p ack -e 40 -c 0 -i 23 -a 0 -x {3.0 0.0 5 ------- null}
+ -t 1.1989456 -s 0 -d 2 -p tcp -e 1540 -c 0 -i 25 -a 0 -x {0.0 3.0 13 ------- null}
- -t 1.1989456 -s 0 -d 2 -p tcp -e 1540 -c 0 -i 25 -a 0 -x {0.0 3.0 13 ------- null}
h -t 1.1989456 -s 0 -d 2 -p tcp -e 1540 -c 0 -i 25 -a 0 -x {0.0 3.0 -1 ------- null}
r -t 1.2012624 -s 3 -d 2 -p ack -e 40 -c 0 -i 24 -a 0 -x {3.0 0.0 5 ------- null}
+ -t 1.2012624 -s 2 -d 0 -p ack -e 40 -c 0 -i 24 -a 0 -x {3.0 0.0 5 ------- null}
- -t 1.2012624 -s 2 -d 0 -p ack -e 40 -c 0 -i 24 -a 0 -x {3.0 0.0 5 ------- null}
h -t 1.2012624 -s 2 -d 0 -p ack -e 40 -c 0 -i 24 -a 0 -x {3.0 0.0 -1 ------- null}
r -t 1.2032624 -s 2 -d 3 -p tcp -e 1540 -c 0 -i 19 -a 0 -x {0.0 3.0 9 ------- null}
+ -t 1.2032624 -s 3 -d 2 -p ack -e 40 -c 0 -i 26 -a 0 -x {3.0 0.0 5 ------- null}
- -t 1.2032624 -s 3 -d 2 -p ack -e 40 -c 0 -i 26 -a 0 -x {3.0 0.0 5 ------- null}
h -t 1.2032624 -s 3 -d 2 -p ack -e 40 -c 0 -i 26 -a 0 -x {3.0 0.0 -1 ------- null}
r -t 1.2090688 -s 0 -d 2 -p tcp -e 1540 -c 0 -i 25 -a 0 -x {0.0 3.0 13 ------- null}
+ -t 1.2090688 -s 2 -d 3 -p tcp -e 1540 -c 0 -i 25 -a 0 -x {0.0 3.0 13 ------- null}
- -t 1.2090688 -s 2 -d 3 -p tcp -e 1540 -c 0 -i 25 -a 0 -x {0.0 3.0 13 ------- null}
h -t 1.2090688 -s 2 -d 3 -p tcp -e 1540 -c 0 -i 25 -a 0 -x {0.0 3.0 -1 ------- null}
r -t 1.2112656 -s 2 -d 0 -p ack -e 40 -c 0 -i 24 -a 0 -x {3.0 0.0 5 ------- null}
+ -t 1.2112656 -s 0 -d 2 -p tcp -e 1540 -c 0 -i 27 -a 0 -x {0.0 3.0 14 ------- null}
- -t 1.2112656 -s 0 -d 2 -p tcp -e 1540 -c 0 -i 27 -a 0 -x {0.0 3.0 14 ------- null}
h -t 1.2112656 -s 0 -d 2 -p tcp -e 1540 -c 0 -i 27 -a 0 -x {0.0 3.0 -1 ------- null}
r -t 1.2135824 -s 3 -d 2 -p ack -e 40 -c 0 -i 26 -a 0 -x {3.0 0.0 5 ------- null}
+ -t 1.2135824 -s 2 -d 0 -p ack -e 40 -c 0 -i 26 -a 0 -x {3.0 0.0 5 ------- null}
- -t 1.2135824 -s 2 -d 0 -p ack -e 40 -c 0 -i 26 -a 0 -x {3.0 0.0 5 ------- null}
h -t 1.2135824 -s 2 -d 0 -p ack -e 40 -c 0 -i 26 -a 0 -x {3.0 0.0 -1 ------- null}
r -t 1.2155824 -s 2 -d 3 -p tcp -e 1540 -c 0 -i 21 -a 0 -x {0.0 3.0 11 ------- null}
+ -t 1.2155824 -s 3 -d 2 -p ack -e 40 -c 0 -i 28 -a 0 -x {3.0 0.0 5 ------- null}
- -t 1.2155824 -s 3 -d 2 -p ack -e 40 -c 0 -i 28 -a 0 -x {3.0 0.0 5 ------- null}
h -t 1.2155824 -s 3 -d 2 -p ack -e 40 -c 0 -i 28 -a 0 -x {3.0 0.0 -1 ------- null}
r -t 1.2213888 -s 0 -d 2 -p tcp -e 1540 -c 0 -i 27 -a 0 -x {0.0 3.0 14 ------- null}
+ -t 1.2213888 -s 2 -d 3 -p tcp -e 1540 -c 0 -i 27 -a 0 -x {0.0 3.0 14 ------- null}
- -t 1.2213888 -s 2 -d 3 -p tcp -e 1540 -c 0 -i 27 -a 0 -x {0.0 3.0 14 ------- null}
h -t 1.2213888 -s 2 -d 3 -p tcp -e 1540 -c 0 -i 27 -a 0 -x {0.0 3.0 -1 ------- null}
r -t 1.2235856 -s 2 -d 0 -p ack -e 40 -c 0 -i 26 -a 0 -x {3.0 0.0 5 ------- null}
+ -t 1.2235856 -s 0 -d 2 -p tcp -e 1540 -c 0 -i 29 -a 0 -x {0.0 3.0 6 ---A--- null}
- -t 1.2235856 -s 0 -d 2 -p tcp -e 1540 -c 0 -i 29 -a 0 -x {0.0 3.0 6 ---A--- null}
h -t 1.2235856 -s 0 -d 2 -p tcp -e 1540 -c 0 -i 29 -a 0 -x {0.0 3.0 -1 ---A--- null}
r -t 1.2259024 -s 3 -d 2 -p ack -e 40 -c 0 -i 28 -a 0 -x {3.0 0.0 5 ------- null}
+ -t 1.2259024 -s 2 -d 0 -p ack -e 40 -c 0 -i 28 -a 0 -x {3.0 0.0 5 ------- null}
- -t 1.2259024 -s 2 -d 0 -p ack -e 40 -c 0 -i 28 -a 0 -x {3.0 0.0 5 ------- null}
h -t 1.2259024 -s 2 -d 0 -p ack -e 40 -c 0 -i 28 -a 0 -x {3.0 0.0 -1 ------- null}
r -t 1.2313888 -s 2 -d 3 -p tcp -e 1540 -c 0 -i 25 -a 0 -x {0.0 3.0 13 ------- null}
+ -t 1.2313888 -s 3 -d 2 -p ack -e 40 -c 0 -i 30 -a 0 -x {3.0 0.0 5 ------- null}
- -t 1.2313888 -s 3 -d 2 -p ack -e 40 -c 0 -i 30 -a 0 -x {3.0 0.0 5 ------- null}
h -t 1.2313888 -s 3 -d 2 -p ack -e 40 -c 0 -i 30 -a 0 -x {3.0 0.0 -1 ------- null}
r -t 1.2337088 -s 0 -d 2 -p tcp -e 1540 -c 0 -i 29 -a 0 -x {0.0 3.0 6 ---A--- null}
+ -t 1.2337088 -s 2 -d 3 -p tcp -e 1540 -c 0 -i 29 -a 0 -x {0.0 3.0 6 ---A--- null}
- -t 1.2337088 -s 2 -d 3 -p tcp -e 1540 -c 0 -i 29 -a 0 -x {0.0 3.0 6 ---A--- null}
h -t 1.2337088 -s 2 -d 3 -p tcp -e 1540 -c 0 -i 29 -a 0 -x {0.0 3.0 -1 ---A--- null}
r -t 1.2359056 -s 2 -d 0 -p ack -e 40 -c 0 -i 28 -a 0 -x {3.0 0.0 5 ------- null}
+ -t 1.2409664 -s 1 -d 2 -p tcp -e 1540 -c 0 -i 31 -a 0 -x {1.0 3.1 1 ---A--- null}
- -t 1.2409664 -s 1 -d 2 -p tcp -e 1540 -c 0 -i 31 -a 0 -x {1.0 3.1 1 ---A--- null}
h -t 1.2409664 -s 1 -d 2 -p tcp -e 1540 -c 0 -i 31 -a 0 -x {1.0 3.1 -1 ---A--- null}
r -t 1.2417088 -s 3 -d 2 -p ack -e 40 -c 0 -i 30 -a 0 -x {3.0 0.0 5 ------- null}
+ -t 1.2417088 -s 2 -d 0 -p ack -e 40 -c 0 -i 30 -a 0 -x {3.0 0.0 5 ------- null}
- -t 1.2417088 -s 2 -d 0 -p ack -e 40 -c 0 -i 30 -a 0 -x {3.0 0.0 5 ------- null}
h -t 1.2417088 -s 2 -d 0 -p ack -e 40 -c 0 -i 30 -a 0 -x {3.0 0.0 -1 ------- null}
r -t 1.2437088 -s 2 -d 3 -p tcp -e 1540 -c 0 -i 27 -a 0 -x {0.0 3.0 14 ------- null}
+ -t 1.2437088 -s 3 -d 2 -p ack -e 40 -c 0 -i 32 -a 0 -x {3.0 0.0 5 ------- null}
- -t 1.2437088 -s 3 -d 2 -p ack -e 40 -c 0 -i 32 -a 0 -x {3.0 0.0 5 ------- null}
h -t 1.2437088 -s 3 -d 2 -p ack -e 40 -c 0 -i 32 -a 0 -x {3.0 0.0 -1 ------- null}
r -t 1.2510896 -s 1 -d 2 -p tcp -e 1540 -c 0 -i 31 -a 0 -x {1.0 3.1 1 ---A--- null}
+ -t 1.2510896 -s 2 -d 3 -p tcp -e 1540 -c 0 -i 31 -a 0 -x {1.0 3.1 1 ---A--- null}
- -t 1.2510896 -s 2 -d 3 -p tcp -e 1540 -c 0 -i 31 -a 0 -x {1.0 3.1 1 ---A--- null}
h -t 1.2510896 -s 2 -d 3 -p tcp -e 1540 -c 0 -i 31 -a 0 -x {1.0 3.1 -1 ---A--- null}
r -t 1.251712 -s 2 -d 0 -p ack -e 40 -c 0 -i 30 -a 0 -x {3.0 0.0 5 ------- null}
r -t 1.2540288 -s 3 -d 2 -p ack -e 40 -c 0 -i 32 -a 0 -x {3.0 0.0 5 ------- null}
+ -t 1.2540288 -s 2 -d 0 -p ack -e 40 -c 0 -i 32 -a 0 -x {3.0 0.0 5 ------- null}
- -t 1.2540288 -s 2 -d 0 -p ack -e 40 -c 0 -i 32 -a 0 -x {3.0 0.0 5 ------- null}
h -t 1.2540288 -s 2 -d 0 -p ack -e 40 -c 0 -i 32 -a 0 -x {3.0 0.0 -1 ------- null}
r -t 1.2560288 -s 2 -d 3 -p tcp -e 1540 -c 0 -i 29 -a 0 -x {0.0 3.0 6 ---A--- null}
+ -t 1.2560288 -s 3 -d 2 -p ack -e 40 -c 0 -i 33 -a 0 -x {3.0 0.0 9 ------- null}
- -t 1.2560288 -s 3 -d 2 -p ack -e 40 -c 0 -i 33 -a 0 -x {3.0 0.0 9 ------- null}
h -t 1.2560288 -s 3 -d 2 -p ack -e 40 -c 0 -i 33 -a 0 -x {3.0 0.0 -1 ------- null}
r -t 1.264032 -s 2 -d 0 -p ack -e 40 -c 0 -i 32 -a 0 -x {3.0 0.0 5 ------- null}
r -t 1.2663488 -s 3 -d 2 -p ack -e 40 -c 0 -i 33 -a 0 -x {3.0 0.0 9 ------- null}
+ -t 1.2663488 -s 2 -d 0 -p ack -e 40 -c 0 -i 33 -a 0 -x {3.0 0.0 9 ------- null}
- -t 1.2663488 -s 2 -d 0 -p ack -e 40 -c 0 -i 33 -a 0 -x {3.0 0.0 9 ------- null}
h -t 1.2663488 -s 2 -d 0 -p ack -e 40 -c 0 -i 33 -a 0 -x {3.0 0.0 -1 ------- null}
r -t 1.2734096 -s 2 -d 3 -p tcp -e 1540 -c 0 -i 31 -a 0 -x {1.0 3.1 1 ---A--- null}
+ -t 1.2734096 -s 3 -d 2 -p ack -e 40 -c 0 -i 34 -a 0 -x {3.1 1.0 1 ------- null}
- -t 1.2734096 -s 3 -d 2 -p ack -e 40 -c 0 -i 34 -a 0 -x {3.1 1.0 1 ------- null}
h -t 1.2734096 -s 3 -d 2 -p ack -e 40 -c 0 -i 34 -a 0 -x {3.1 1.0 -1 ------- null}
r -t 1.276352 -s 2 -d 0 -p ack -e 40 -c 0 -i 33 -a 0 -x {3.0 0.0 9 ------- null}
+ -t 1.276352 -s 0 -d 2 -p tcp -e 1540 -c 0 -i 35 -a 0 -x {0.0 3.0 10 ------- null}
- -t 1.276352 -s 0 -d 2 -p tcp -e 1540 -c 0 -i 35 -a 0 -x {0.0 3.0 10 ------- null}
h -t 1.276352 -s 0 -d 2 -p tcp -e 1540 -c 0 -i 35 -a 0 -x {0.0 3.0 -1 ------- null}
+ -t 1.276352 -s 0 -d 2 -p tcp -e 1540 -c 0 -i 36 -a 0 -x {0.0 3.0 11 ------- null}
- -t 1.2764752 -s 0 -d 2 -p tcp -e 1540 -c 0 -i 36 -a 0 -x {0.0 3.0 11 ------- null}
h -t 1.2764752 -s 0 -d 2 -p tcp -e 1540 -c 0 -i 36 -a 0 -x {0.0 3.0 -1 ------- null}
r -t 1.2837296 -s 3 -d 2 -p ack -e 40 -c 0 -i 34 -a 0 -x {3.1 1.0 1 ------- null}
+ -t 1.2837296 -s 2 -d 1 -p ack -e 40 -c 0 -i 34 -a 0 -x {3.1 1.0 1 ------- null}
- -t 1.2837296 -s 2 -d 1 -p ack -e 40 -c 0 -i 34 -a 0 -x {3.1 1.0 1 ------- null}
h -t 1.2837296 -s 2 -d 1 -p ack -e 40 -c 0 -i 34 -a 0 -x {3.1 1.0 -1 ------- null}
r -t 1.2864752 -s 0 -d 2 -p tcp -e 1540 -c 0 -i 35 -a 0 -x {0.0 3.0 10 ------- null}
+ -t 1.2864752 -s 2 -d 3 -p tcp -e 1540 -c 0 -i 35 -a 0 -x {0.0 3.0 10 ------- null}
- -t 1.2864752 -s 2 -d 3 -p tcp -e 1540 -c 0 -i 35 -a 0 -x {0.0 3.0 10 ------- null}
h -t 1.2864752 -s 2 -d 3 -p tcp -e 1540 -c 0 -i 35 -a 0 -x {0.0 3.0 -1 ------- null}
r -t 1.2865984 -s 0 -d 2 -p tcp -e 1540 -c 0 -i 36 -a 0 -x {0.0 3.0 11 ------- null}
+ -t 1.2865984 -s 2 -d 3 -p tcp -e 1540 -c 0 -i 36 -a 0 -x {0.0 3.0 11 ------- null}
r -t 1.2937328 -s 2 -d 1 -p ack -e 40 -c 0 -i 34 -a 0 -x {3.1 1.0 1 ------- null}
+ -t 1.2937328 -s 1 -d 2 -p tcp -e 1540 -c 0 -i 37 -a 0 -x {1.0 3.1 2 ------- null}
- -t 1.2937328 -s 1 -d 2 -p tcp -e 1540 -c 0 -i 37 -a 0 -x {1.0 3.1 2 ------- null}
h -t 1.2937328 -s 1 -d 2 -p tcp -e 1540 -c 0 -i 37 -a 0 -x {1.0 3.1 -1 ------- null}
+ -t 1.2937328 -s 1 -d 2 -p tcp -e 1540 -c 0 -i 38 -a 0 -x {1.0 3.1 3 ------- null}
- -t 1.293856 -s 1 -d 2 -p tcp -e 1540 -c 0 -i 38 -a 0 -x {1.0 3.1 3 ------- null}
h -t 1.293856 -s 1 -d 2 -p tcp -e 1540 -c 0 -i 38 -a 0 -x {1.0 3.1 -1 ------- null}
- -t 1.2987952 -s 2 -d 3 -p tcp -e 1540 -c 0 -i 36 -a 0 -x {0.0 3.0 11 ------- null}
h -t 1.2987952 -s 2 -d 3 -p tcp -e 1540 -c 0 -i 36 -a 0 -x {0.0 3.0 -1 ------- null}
r -t 1.303856 -s 1 -d 2 -p tcp -e 1540 -c 0 -i 37 -a 0 -x {1.0 3.1 2 ------- null}
+ -t 1.303856 -s 2 -d 3 -p tcp -e 1540 -c 0 -i 37 -a 0 -x {1.0 3.1 2 ------- null}
r -t 1.3039792 -s 1 -d 2 -p tcp -e 1540 -c 0 -i 38 -a 0 -x {1.0 3.1 3 ------- null}
+ -t 1.3039792 -s 2 -d 3 -p tcp -e 1540 -c 0 -i 38 -a 0 -x {1.0 3.1 3 ------- null}
d -t 1.3039792 -s 2 -d 3 -p tcp -e 1540 -c 0 -i 38 -a 0 -x {1.0 3.1 3 ------- null}
r -t 1.3087952 -s 2 -d 3 -p tcp -e 1540 -c 0 -i 35 -a 0 -x {0.0 3.0 10 ------- null}
+ -t 1.3087952 -s 3 -d 2 -p ack -e 40 -c 0 -i 39 -a 0 -x {3.0 0.0 11 ------- null}
- -t 1.3087952 -s 3 -d 2 -p ack -e 40 -c 0 -i 39 -a 0 -x {3.0 0.0 11 ------- null}
h -t 1.3087952 -s 3 -d 2 -p ack -e 40 -c 0 -i 39 -a 0 -x {3.0 0.0 -1 ------- null}
- -t 1.3111152 -s 2 -d 3 -p tcp -e 1540 -c 0 -i 37 -a 0 -x {1.0 3.1 2 ------- null}
h -t 1.3111152 -s 2 -d 3 -p tcp -e 1540 -c 0 -i 37 -a 0 -x {1.0 3.1 -1 ------- null}
r -t 1.3191152 -s 3 -d 2 -p ack -e 40 -c 0 -i 39 -a 0 -x {3.0 0.0 11 ------- null}
+ -t 1.3191152 -s 2 -d 0 -p ack -e 40 -c 0 -i 39 -a 0 -x {3.0 0.0 11 ------- null}
- -t 1.3191152 -s 2 -d 0 -p ack -e 40 -c 0 -i 39 -a 0 -x {3.0 0.0 11 ------- null}
h -t 1.3191152 -s 2 -d 0 -p ack -e 40 -c 0 -i 39 -a 0 -x {3.0 0.0 -1 ------- null}
r -t 1.3211152 -s 2 -d 3 -p tcp -e 1540 -c 0 -i 36 -a 0 -x {0.0 3.0 11 ------- null}
+ -t 1.3211152 -s 3 -d 2 -p ack -e 40 -c 0 -i 40 -a 0 -x {3.0 0.0 11 ------- null}
- -t 1.3211152 -s 3 -d 2 -p ack -e 40 -c 0 -i 40 -a 0 -x {3.0 0.0 11 ------- null}
h -t 1.3211152 -s 3 -d 2 -p ack -e 40 -c 0 -i 40 -a 0 -x {3.0 0.0 -1 ------- null}
r -t 1.3291184 -s 2 -d 0 -p ack -e 40 -c 0 -i 39 -a 0 -x {3.0 0.0 11 ------- null}
+ -t 1.3291184 -s 0 -d 2 -p tcp -e 1540 -c 0 -i 41 -a 0 -x {0.0 3.0 12 ------- null}
- -t 1.3291184 -s 0 -d 2 -p tcp -e 1540 -c 0 -i 41 -a 0 -x {0.0 3.0 12 ------- null}
h -t 1.3291184 -s 0 -d 2 -p tcp -e 1540 -c 0 -i 41 -a 0 -x {0.0 3.0 -1 ------- null}
+ -t 1.3291184 -s 0 -d 2 -p tcp -e 1540 -c 0 -i 42 -a 0 -x {0.0 3.0 13 ------- null}
+ -t 1.3291184 -s 0 -d 2 -p tcp -e 1540 -c 0 -i 43 -a 0 -x {0.0 3.0 14 ------- null}
- -t 1.3292416 -s 0 -d 2 -p tcp -e 1540 -c 0 -i 42 -a 0 -x {0.0 3.0 13 ------- null}
h -t 1.3292416 -s 0 -d 2 -p tcp -e 1540 -c 0 -i 42 -a 0 -x {0.0 3.0 -1 ------- null}
- -t 1.3293648 -s 0 -d 2 -p tcp -e 1540 -c 0 -i 43 -a 0 -x {0.0 3.0 14 ------- null}
h -t 1.3293648 -s 0 -d 2 -p tcp -e 1540 -c 0 -i 43 -a 0 -x {0.0 3.0 -1 ------- null}
r -t 1.3314352 -s 3 -d 2 -p ack -e 40 -c 0 -i 40 -a 0 -x {3.0 0.0 11 ------- null}
+ -t 1.3314352 -s 2 -d 0 -p ack -e 40 -c 0 -i 40 -a 0 -x {3.0 0.0 11 ------- null}
- -t 1.3314352 -s 2 -d 0 -p ack -e 40 -c 0 -i 40 -a 0 -x {3.0 0.0 11 ------- null}
h -t 1.3314352 -s 2 -d 0 -p ack -e 40 -c 0 -i 40 -a 0 -x {3.0 0.0 -1 ------- null}
r -t 1.3334352 -s 2 -d 3 -p tcp -e 1540 -c 0 -i 37 -a 0 -x {1.0 3.1 2 ------- null}
+ -t 1.3334352 -s 3 -d 2 -p ack -e 40 -c 0 -i 44 -a 0 -x {3.1 1.0 2 ------- null}
- -t 1.3334352 -s 3 -d 2 -p ack -e 40 -c 0 -i 44 -a 0 -x {3.1 1.0 2 ------- null}
h -t 1.3334352 -s 3 -d 2 -p ack -e 40 -c 0 -i 44 -a 0 -x {3.1 1.0 -1 ------- null}
r -t 1.3392416 -s 0 -d 2 -p tcp -e 1540 -c 0 -i 41 -a 0 -x {0.0 3.0 12 ------- null}
+ -t 1.3392416 -s 2 -d 3 -p tcp -e 1540 -c 0 -i 41 -a 0 -x {0.0 3.0 12 ------- null}
- -t 1.3392416 -s 2 -d 3 -p tcp -e 1540 -c 0 -i 41 -a 0 -x {0.0 3.0 12 ------- null}
h -t 1.3392416 -s 2 -d 3 -p tcp -e 1540 -c 0 -i 41 -a 0 -x {0.0 3.0 -1 ------- null}
r -t 1.3393648 -s 0 -d 2 -p tcp -e 1540 -c 0 -i 42 -a 0 -x {0.0 3.0 13 ------- null}
+ -t 1.3393648 -s 2 -d 3 -p tcp -e 1540 -c 0 -i 42 -a 0 -x {0.0 3.0 13 ------- null}
r -t 1.339488 -s 0 -d 2 -p tcp -e 1540 -c 0 -i 43 -a 0 -x {0.0 3.0 14 ------- null}
+ -t 1.339488 -s 2 -d 3 -p tcp -e 1540 -c 0 -i 43 -a 0 -x {0.0 3.0 14 ------- null}
d -t 1.339488 -s 2 -d 3 -p tcp -e 1540 -c 0 -i 43 -a 0 -x {0.0 3.0 14 ------- null}
r -t 1.3414384 -s 2 -d 0 -p ack -e 40 -c 0 -i 40 -a 0 -x {3.0 0.0 11 ------- null}
+ -t 1.3414384 -s 0 -d 2 -p tcp -e 1540 -c 0 -i 45 -a 0 -x {0.0 3.0 15 ------- null}
- -t 1.3414384 -s 0 -d 2 -p tcp -e 1540 -c 0 -i 45 -a 0 -x {0.0 3.0 15 ------- null}
h -t 1.3414384 -s 0 -d 2 -p tcp -e 1540 -c 0 -i 45 -a 0 -x {0.0 3.0 -1 ------- null}
r -t 1.3437552 -s 3 -d 2 -p ack -e 40 -c 0 -i 44 -a 0 -x {3.1 1.0 2 ------- null}
+ -t 1.3437552 -s 2 -d 1 -p ack -e 40 -c 0 -i 44 -a 0 -x {3.1 1.0 2 ------- null}
- -t 1.3437552 -s 2 -d 1 -p ack -e 40 -c 0 -i 44 -a 0 -x {3.1 1.0 2 ------- null}
h -t 1.3437552 -s 2 -d 1 -p ack -e 40 -c 0 -i 44 -a 0 -x {3.1 1.0 -1 ------- null}
- -t 1.3515616 -s 2 -d 3 -p tcp -e 1540 -c 0 -i 42 -a 0 -x {0.0 3.0 13 ------- null}
h -t 1.3515616 -s 2 -d 3 -p tcp -e 1540 -c 0 -i 42 -a 0 -x {0.0 3.0 -1 ------- null}
r -t 1.3515616 -s 0 -d 2 -p tcp -e 1540 -c 0 -i 45 -a 0 -x {0.0 3.0 15 ------- null}
+ -t 1.3515616 -s 2 -d 3 -p tcp -e 1540 -c 0 -i 45 -a 0 -x {0.0 3.0 15 ------- null}
r -t 1.3537584 -s 2 -d 1 -p ack -e 40 -c 0 -i 44 -a 0 -x {3.1 1.0 2 ------- null}
+ -t 1.3537584 -s 1 -d 2 -p tcp -e 1540 -c 0 -i 46 -a 0 -x {1.0 3.1 4 ------- null}
- -t 1.3537584 -s 1 -d 2 -p tcp -e 1540 -c 0 -i 46 -a 0 -x {1.0 3.1 4 ------- null}
h -t 1.3537584 -s 1 -d 2 -p tcp -e 1540 -c 0 -i 46 -a 0 -x {1.0 3.1 -1 ------- null}
r -t 1.3615616 -s 2 -d 3 -p tcp -e 1540 -c 0 -i 41 -a 0 -x {0.0 3.0 12 ------- null}
+ -t 1.3615616 -s 3 -d 2 -p ack -e 40 -c 0 -i 47 -a 0 -x {3.0 0.0 14 ------- null}
- -t 1.3615616 -s 3 -d 2 -p ack -e 40 -c 0 -i 47 -a 0 -x {3.0 0.0 14 ------- null}