+ 1 0 2 tcp 40 ------- 0 0.0 3.0 0 0
- 1 0 2 tcp 40 ------- 0 0.0 3.0 0 0
+ 1 1 2 tcp 40 ------- 0 1.0 3.1 0 1
- 1 1 2 tcp 40 ------- 0 1.0 3.1 0 1
r 1.010003 0 2 tcp 40 ------- 0 0.0 3.0 0 0
+ 1.010003 2 3 tcp 40 ------- 0 0.0 3.0 0 0
- 1.010003 2 3 tcp 40 ------- 0 0.0 3.0 0 0
r 1.010003 1 2 tcp 40 ------- 0 1.0 3.1 0 1
+ 1.010003 2 3 tcp 40 ------- 0 1.0 3.1 0 1
- 1.010323 2 3 tcp 40 ------- 0 1.0 3.1 0 1
r 1.020323 2 3 tcp 40 ------- 0 0.0 3.0 0 0
+ 1.020323 3 2 ack 40 ------- 0 3.0 0.0 0 2
- 1.020323 3 2 ack 40 ------- 0 3.0 0.0 0 2
r 1.020643 2 3 tcp 40 ------- 0 1.0 3.1 0 1
+ 1.020643 3 2 ack 40 ------- 0 3.1 1.0 0 3
- 1.020643 3 2 ack 40 ------- 0 3.1 1.0 0 3
r 1.030643 3 2 ack 40 ------- 0 3.0 0.0 0 2
+ 1.030643 2 0 ack 40 ------- 0 3.0 0.0 0 2
- 1.030643 2 0 ack 40 ------- 0 3.0 0.0 0 2
r 1.030963 3 2 ack 40 ------- 0 3.1 1.0 0 3
+ 1.030963 2 1 ack 40 ------- 0 3.1 1.0 0 3
- 1.030963 2 1 ack 40 ------- 0 3.1 1.0 0 3
r 1.040646 2 0 ack 40 ------- 0 3.0 0.0 0 2
+ 1.040646 0 2 tcp 1540 ------- 0 0.0 3.0 1 4
- 1.040646 0 2 tcp 1540 ------- 0 0.0 3.0 1 4
+ 1.040646 0 2 tcp 1540 ------- 0 0.0 3.0 2 5
- 1.04077 0 2 tcp 1540 ------- 0 0.0 3.0 2 5
r 1.040966 2 1 ack 40 ------- 0 3.1 1.0 0 3
+ 1.040966 1 2 tcp 1540 ------- 0 1.0 3.1 1 6
- 1.040966 1 2 tcp 1540 ------- 0 1.0 3.1 1 6
+ 1.040966 1 2 tcp 1540 ------- 0 1.0 3.1 2 7
- 1.04109 1 2 tcp 1540 ------- 0 1.0 3.1 2 7
r 1.05077 0 2 tcp 1540 ------- 0 0.0 3.0 1 4
+ 1.05077 2 3 tcp 1540 ------- 0 0.0 3.0 1 4
- 1.05077 2 3 tcp 1540 ------- 0 0.0 3.0 1 4
r 1.050893 0 2 tcp 1540 ------- 0 0.0 3.0 2 5
+ 1.050893 2 3 tcp 1540 ------- 0 0.0 3.0 2 5
r 1.05109 1 2 tcp 1540 ------- 0 1.0 3.1 1 6
+ 1.05109 2 3 tcp 1540 ------- 0 1.0 3.1 1 6
d 1.05109 2 3 tcp 1540 ------- 0 1.0 3.1 1 6
r 1.051213 1 2 tcp 1540 ------- 0 1.0 3.1 2 7
+ 1.051213 2 3 tcp 1540 ------- 0 1.0 3.1 2 7
d 1.051213 2 3 tcp 1540 ------- 0 1.0 3.1 2 7
- 1.06309 2 3 tcp 1540 ------- 0 0.0 3.0 2 5
r 1.07309 2 3 tcp 1540 ------- 0 0.0 3.0 1 4
+ 1.07309 3 2 ack 40 ------- 0 3.0 0.0 1 8
- 1.07309 3 2 ack 40 ------- 0 3.0 0.0 1 8
r 1.08341 3 2 ack 40 ------- 0 3.0 0.0 1 8
+ 1.08341 2 0 ack 40 ------- 0 3.0 0.0 1 8
- 1.08341 2 0 ack 40 ------- 0 3.0 0.0 1 8
r 1.08541 2 3 tcp 1540 ------- 0 0.0 3.0 2 5
+ 1.08541 3 2 ack 40 ------- 0 3.0 0.0 2 9
- 1.08541 3 2 ack 40 ------- 0 3.0 0.0 2 9
r 1.093413 2 0 ack 40 ------- 0 3.0 0.0 1 8
+ 1.093413 0 2 tcp 1540 ------- 0 0.0 3.0 3 10
- 1.093413 0 2 tcp 1540 ------- 0 0.0 3.0 3 10
+ 1.093413 0 2 tcp 1540 ------- 0 0.0 3.0 4 11
- 1.093536 0 2 tcp 1540 ------- 0 0.0 3.0 4 11
r 1.09573 3 2 ack 40 ------- 0 3.0 0.0 2 9
+ 1.09573 2 0 ack 40 ------- 0 3.0 0.0 2 9
- 1.09573 2 0 ack 40 ------- 0 3.0 0.0 2 9
r 1.103536 0 2 tcp 1540 ------- 0 0.0 3.0 3 10
+ 1.103536 2 3 tcp 1540 ------- 0 0.0 3.0 3 10
- 1.103536 2 3 tcp 1540 ------- 0 0.0 3.0 3 10
r 1.103659 0 2 tcp 1540 ------- 0 0.0 3.0 4 11
+ 1.103659 2 3 tcp 1540 ------- 0 0.0 3.0 4 11
r 1.105733 2 0 ack 40 ------- 0 3.0 0.0 2 9
+ 1.105733 0 2 tcp 1540 ------- 0 0.0 3.0 5 12
- 1.105733 0 2 tcp 1540 ------- 0 0.0 3.0 5 12
+ 1.105733 0 2 tcp 1540 ------- 0 0.0 3.0 6 13
- 1.105856 0 2 tcp 1540 ------- 0 0.0 3.0 6 13
- 1.115856 2 3 tcp 1540 ------- 0 0.0 3.0 4 11
r 1.115856 0 2 tcp 1540 ------- 0 0.0 3.0 5 12
+ 1.115856 2 3 tcp 1540 ------- 0 0.0 3.0 5 12
r 1.115979 0 2 tcp 1540 ------- 0 0.0 3.0 6 13
+ 1.115979 2 3 tcp 1540 ------- 0 0.0 3.0 6 13
d 1.115979 2 3 tcp 1540 ------- 0 0.0 3.0 6 13
r 1.125856 2 3 tcp 1540 ------- 0 0.0 3.0 3 10
+ 1.125856 3 2 ack 40 ------- 0 3.0 0.0 3 14
- 1.125856 3 2 ack 40 ------- 0 3.0 0.0 3 14
- 1.128176 2 3 tcp 1540 ------- 0 0.0 3.0 5 12
r 1.136176 3 2 ack 40 ------- 0 3.0 0.0 3 14
+ 1.136176 2 0 ack 40 ------- 0 3.0 0.0 3 14
- 1.136176 2 0 ack 40 ------- 0 3.0 0.0 3 14
r 1.138176 2 3 tcp 1540 ------- 0 0.0 3.0 4 11
+ 1.138176 3 2 ack 40 ------- 0 3.0 0.0 4 15
- 1.138176 3 2 ack 40 ------- 0 3.0 0.0 4 15
r 1.146179 2 0 ack 40 ------- 0 3.0 0.0 3 14
+ 1.146179 0 2 tcp 1540 ------- 0 0.0 3.0 7 16
- 1.146179 0 2 tcp 1540 ------- 0 0.0 3.0 7 16
+ 1.146179 0 2 tcp 1540 ------- 0 0.0 3.0 8 17
- 1.146302 0 2 tcp 1540 ------- 0 0.0 3.0 8 17
r 1.148496 3 2 ack 40 ------- 0 3.0 0.0 4 15
+ 1.148496 2 0 ack 40 ------- 0 3.0 0.0 4 15
- 1.148496 2 0 ack 40 ------- 0 3.0 0.0 4 15
r 1.150496 2 3 tcp 1540 ------- 0 0.0 3.0 5 12
+ 1.150496 3 2 ack 40 ------- 0 3.0 0.0 5 18
- 1.150496 3 2 ack 40 ------- 0 3.0 0.0 5 18
r 1.156302 0 2 tcp 1540 ------- 0 0.0 3.0 7 16
+ 1.156302 2 3 tcp 1540 ------- 0 0.0 3.0 7 16
- 1.156302 2 3 tcp 1540 ------- 0 0.0 3.0 7 16
r 1.156426 0 2 tcp 1540 ------- 0 0.0 3.0 8 17
+ 1.156426 2 3 tcp 1540 ------- 0 0.0 3.0 8 17
r 1.158499 2 0 ack 40 ------- 0 3.0 0.0 4 15
+ 1.158499 0 2 tcp 1540 ------- 0 0.0 3.0 9 19
- 1.158499 0 2 tcp 1540 ------- 0 0.0 3.0 9 19
+ 1.158499 0 2 tcp 1540 ------- 0 0.0 3.0 10 20
- 1.158622 0 2 tcp 1540 ------- 0 0.0 3.0 10 20
r 1.160816 3 2 ack 40 ------- 0 3.0 0.0 5 18
+ 1.160816 2 0 ack 40 ------- 0 3.0 0.0 5 18
- 1.160816 2 0 ack 40 ------- 0 3.0 0.0 5 18
- 1.168622 2 3 tcp 1540 ------- 0 0.0 3.0 8 17
r 1.168622 0 2 tcp 1540 ------- 0 0.0 3.0 9 19
+ 1.168622 2 3 tcp 1540 ------- 0 0.0 3.0 9 19
r 1.168746 0 2 tcp 1540 ------- 0 0.0 3.0 10 20
+ 1.168746 2 3 tcp 1540 ------- 0 0.0 3.0 10 20
d 1.168746 2 3 tcp 1540 ------- 0 0.0 3.0 10 20
r 1.170819 2 0 ack 40 ------- 0 3.0 0.0 5 18
+ 1.170819 0 2 tcp 1540 ------- 0 0.0 3.0 11 21
- 1.170819 0 2 tcp 1540 ------- 0 0.0 3.0 11 21
+ 1.170819 0 2 tcp 1540 ------- 0 0.0 3.0 12 22
- 1.170942 0 2 tcp 1540 ------- 0 0.0 3.0 12 22
r 1.178622 2 3 tcp 1540 ------- 0 0.0 3.0 7 16
+ 1.178622 3 2 ack 40 ------- 0 3.0 0.0 5 23
- 1.178622 3 2 ack 40 ------- 0 3.0 0.0 5 23
- 1.180942 2 3 tcp 1540 ------- 0 0.0 3.0 9 19
r 1.180942 0 2 tcp 1540 ------- 0 0.0 3.0 11 21
+ 1.180942 2 3 tcp 1540 ------- 0 0.0 3.0 11 21
r 1.181066 0 2 tcp 1540 ------- 0 0.0 3.0 12 22
+ 1.181066 2 3 tcp 1540 ------- 0 0.0 3.0 12 22
d 1.181066 2 3 tcp 1540 ------- 0 0.0 3.0 12 22
r 1.188942 3 2 ack 40 ------- 0 3.0 0.0 5 23
+ 1.188942 2 0 ack 40 ------- 0 3.0 0.0 5 23
- 1.188942 2 0 ack 40 ------- 0 3.0 0.0 5 23
r 1.190942 2 3 tcp 1540 ------- 0 0.0 3.0 8 17
+ 1.190942 3 2 ack 40 ------- 0 3.0 0.0 5 24
- 1.190942 3 2 ack 40 ------- 0 3.0 0.0 5 24
- 1.193262 2 3 tcp 1540 ------- 0 0.0 3.0 11 21
r 1.198946 2 0 ack 40 ------- 0 3.0 0.0 5 23
+ 1.198946 0 2 tcp 1540 ------- 0 0.0 3.0 13 25
- 1.198946 0 2 tcp 1540 ------- 0 0.0 3.0 13 25
r 1.201262 3 2 ack 40 ------- 0 3.0 0.0 5 24
+ 1.201262 2 0 ack 40 ------- 0 3.0 0.0 5 24
- 1.201262 2 0 ack 40 ------- 0 3.0 0.0 5 24
r 1.203262 2 3 tcp 1540 ------- 0 0.0 3.0 9 19
+ 1.203262 3 2 ack 40 ------- 0 3.0 0.0 5 26
- 1.203262 3 2 ack 40 ------- 0 3.0 0.0 5 26
r 1.209069 0 2 tcp 1540 ------- 0 0.0 3.0 13 25
+ 1.209069 2 3 tcp 1540 ------- 0 0.0 3.0 13 25
- 1.209069 2 3 tcp 1540 ------- 0 0.0 3.0 13 25
r 1.211266 2 0 ack 40 ------- 0 3.0 0.0 5 24
+ 1.211266 0 2 tcp 1540 ------- 0 0.0 3.0 14 27
- 1.211266 0 2 tcp 1540 ------- 0 0.0 3.0 14 27
r 1.213582 3 2 ack 40 ------- 0 3.0 0.0 5 26
+ 1.213582 2 0 ack 40 ------- 0 3.0 0.0 5 26
- 1.213582 2 0 ack 40 ------- 0 3.0 0.0 5 26
r 1.215582 2 3 tcp 1540 ------- 0 0.0 3.0 11 21
+ 1.215582 3 2 ack 40 ------- 0 3.0 0.0 5 28
- 1.215582 3 2 ack 40 ------- 0 3.0 0.0 5 28
r 1.221389 0 2 tcp 1540 ------- 0 0.0 3.0 14 27
+ 1.221389 2 3 tcp 1540 ------- 0 0.0 3.0 14 27
- 1.221389 2 3 tcp 1540 ------- 0 0.0 3.0 14 27
r 1.223586 2 0 ack 40 ------- 0 3.0 0.0 5 26
+ 1.223586 0 2 tcp 1540 ---A--- 0 0.0 3.0 6 29
- 1.223586 0 2 tcp 1540 ---A--- 0 0.0 3.0 6 29
r 1.225902 3 2 ack 40 ------- 0 3.0 0.0 5 28
+ 1.225902 2 0 ack 40 ------- 0 3.0 0.0 5 28
- 1.225902 2 0 ack 40 ------- 0 3.0 0.0 5 28
r 1.231389 2 3 tcp 1540 ------- 0 0.0 3.0 13 25
+ 1.231389 3 2 ack 40 ------- 0 3.0 0.0 5 30
- 1.231389 3 2 ack 40 ------- 0 3.0 0.0 5 30
r 1.233709 0 2 tcp 1540 ---A--- 0 0.0 3.0 6 29
+ 1.233709 2 3 tcp 1540 ---A--- 0 0.0 3.0 6 29
- 1.233709 2 3 tcp 1540 ---A--- 0 0.0 3.0 6 29
r 1.235906 2 0 ack 40 ------- 0 3.0 0.0 5 28
+ 1.240966 1 2 tcp 1540 ---A--- 0 1.0 3.1 1 31
- 1.240966 1 2 tcp 1540 ---A--- 0 1.0 3.1 1 31
r 1.241709 3 2 ack 40 ------- 0 3.0 0.0 5 30
+ 1.241709 2 0 ack 40 ------- 0 3.0 0.0 5 30
- 1.241709 2 0 ack 40 ------- 0 3.0 0.0 5 30
r 1.243709 2 3 tcp 1540 ------- 0 0.0 3.0 14 27
+ 1.243709 3 2 ack 40 ------- 0 3.0 0.0 5 32
- 1.243709 3 2 ack 40 ------- 0 3.0 0.0 5 32
r 1.25109 1 2 tcp 1540 ---A--- 0 1.0 3.1 1 31
+ 1.25109 2 3 tcp 1540 ---A--- 0 1.0 3.1 1 31
- 1.25109 2 3 tcp 1540 ---A--- 0 1.0 3.1 1 31
r 1.251712 2 0 ack 40 ------- 0 3.0 0.0 5 30
r 1.254029 3 2 ack 40 ------- 0 3.0 0.0 5 32
+ 1.254029 2 0 ack 40 ------- 0 3.0 0.0 5 32
- 1.254029 2 0 ack 40 ------- 0 3.0 0.0 5 32
r 1.256029 2 3 tcp 1540 ---A--- 0 0.0 3.0 6 29
+ 1.256029 3 2 ack 40 ------- 0 3.0 0.0 9 33
- 1.256029 3 2 ack 40 ------- 0 3.0 0.0 9 33
r 1.264032 2 0 ack 40 ------- 0 3.0 0.0 5 32
r 1.266349 3 2 ack 40 ------- 0 3.0 0.0 9 33
+ 1.266349 2 0 ack 40 ------- 0 3.0 0.0 9 33
- 1.266349 2 0 ack 40 ------- 0 3.0 0.0 9 33
r 1.27341 2 3 tcp 1540 ---A--- 0 1.0 3.1 1 31
+ 1.27341 3 2 ack 40 ------- 0 3.1 1.0 1 34
- 1.27341 3 2 ack 40 ------- 0 3.1 1.0 1 34
r 1.276352 2 0 ack 40 ------- 0 3.0 0.0 9 33
+ 1.276352 0 2 tcp 1540 ------- 0 0.0 3.0 10 35
- 1.276352 0 2 tcp 1540 ------- 0 0.0 3.0 10 35
+ 1.276352 0 2 tcp 1540 ------- 0 0.0 3.0 11 36
- 1.276475 0 2 tcp 1540 ------- 0 0.0 3.0 11 36
r 1.28373 3 2 ack 40 ------- 0 3.1 1.0 1 34
+ 1.28373 2 1 ack 40 ------- 0 3.1 1.0 1 34
- 1.28373 2 1 ack 40 ------- 0 3.1 1.0 1 34
r 1.286475 0 2 tcp 1540 ------- 0 0.0 3.0 10 35
+ 1.286475 2 3 tcp 1540 ------- 0 0.0 3.0 10 35
- 1.286475 2 3 tcp 1540 ------- 0 0.0 3.0 10 35
r 1.286598 0 2 tcp 1540 ------- 0 0.0 3.0 11 36
+ 1.286598 2 3 tcp 1540 ------- 0 0.0 3.0 11 36
r 1.293733 2 1 ack 40 ------- 0 3.1 1.0 1 34
+ 1.293733 1 2 tcp 1540 ------- 0 1.0 3.1 2 37
- 1.293733 1 2 tcp 1540 ------- 0 1.0 3.1 2 37
+ 1.293733 1 2 tcp 1540 ------- 0 1.0 3.1 3 38
- 1.293856 1 2 tcp 1540 ------- 0 1.0 3.1 3 38
- 1.298795 2 3 tcp 1540 ------- 0 0.0 3.0 11 36
r 1.303856 1 2 tcp 1540 ------- 0 1.0 3.1 2 37
+ 1.303856 2 3 tcp 1540 ------- 0 1.0 3.1 2 37
r 1.303979 1 2 tcp 1540 ------- 0 1.0 3.1 3 38
+ 1.303979 2 3 tcp 1540 ------- 0 1.0 3.1 3 38
d 1.303979 2 3 tcp 1540 ------- 0 1.0 3.1 3 38
r 1.308795 2 3 tcp 1540 ------- 0 0.0 3.0 10 35
+ 1.308795 3 2 ack 40 ------- 0 3.0 0.0 11 39
- 1.308795 3 2 ack 40 ------- 0 3.0 0.0 11 39
- 1.311115 2 3 tcp 1540 ------- 0 1.0 3.1 2 37
r 1.319115 3 2 ack 40 ------- 0 3.0 0.0 11 39
+ 1.319115 2 0 ack 40 ------- 0 3.0 0.0 11 39
- 1.319115 2 0 ack 40 ------- 0 3.0 0.0 11 39
r 1.321115 2 3 tcp 1540 ------- 0 0.0 3.0 11 36
+ 1.321115 3 2 ack 40 ------- 0 3.0 0.0 11 40
- 1.321115 3 2 ack 40 ------- 0 3.0 0.0 11 40
r 1.329118 2 0 ack 40 ------- 0 3.0 0.0 11 39
+ 1.329118 0 2 tcp 1540 ------- 0 0.0 3.0 12 41
- 1.329118 0 2 tcp 1540 ------- 0 0.0 3.0 12 41
+ 1.329118 0 2 tcp 1540 ------- 0 0.0 3.0 13 42
+ 1.329118 0 2 tcp 1540 ------- 0 0.0 3.0 14 43
- 1.329242 0 2 tcp 1540 ------- 0 0.0 3.0 13 42
- 1.329365 0 2 tcp 1540 ------- 0 0.0 3.0 14 43
r 1.331435 3 2 ack 40 ------- 0 3.0 0.0 11 40
+ 1.331435 2 0 ack 40 ------- 0 3.0 0.0 11 40
- 1.331435 2 0 ack 40 ------- 0 3.0 0.0 11 40
r 1.333435 2 3 tcp 1540 ------- 0 1.0 3.1 2 37
+ 1.333435 3 2 ack 40 ------- 0 3.1 1.0 2 44
- 1.333435 3 2 ack 40 ------- 0 3.1 1.0 2 44
r 1.339242 0 2 tcp 1540 ------- 0 0.0 3.0 12 41
+ 1.339242 2 3 tcp 1540 ------- 0 0.0 3.0 12 41
- 1.339242 2 3 tcp 1540 ------- 0 0.0 3.0 12 41
r 1.339365 0 2 tcp 1540 ------- 0 0.0 3.0 13 42
+ 1.339365 2 3 tcp 1540 ------- 0 0.0 3.0 13 42
r 1.339488 0 2 tcp 1540 ------- 0 0.0 3.0 14 43
+ 1.339488 2 3 tcp 1540 ------- 0 0.0 3.0 14 43
d 1.339488 2 3 tcp 1540 ------- 0 0.0 3.0 14 43
r 1.341438 2 0 ack 40 ------- 0 3.0 0.0 11 40
+ 1.341438 0 2 tcp 1540 ------- 0 0.0 3.0 15 45
- 1.341438 0 2 tcp 1540 ------- 0 0.0 3.0 15 45
r 1.343755 3 2 ack 40 ------- 0 3.1 1.0 2 44
+ 1.343755 2 1 ack 40 ------- 0 3.1 1.0 2 44
- 1.343755 2 1 ack 40 ------- 0 3.1 1.0 2 44
- 1.351562 2 3 tcp 1540 ------- 0 0.0 3.0 13 42
r 1.351562 0 2 tcp 1540 ------- 0 0.0 3.0 15 45
+ 1.351562 2 3 tcp 1540 ------- 0 0.0 3.0 15 45
r 1.353758 2 1 ack 40 ------- 0 3.1 1.0 2 44
+ 1.353758 1 2 tcp 1540 ------- 0 1.0 3.1 4 46
- 1.353758 1 2 tcp 1540 ------- 0 1.0 3.1 4 46
r 1.361562 2 3 tcp 1540 ------- 0 0.0 3.0 12 41
+ 1.361562 3 2 ack 40 ------- 0 3.0 0.0 14 47
- 1.361562 3 2 ack 40 ------- 0 3.0 0.0 14 47
- 1.363882 2 3 tcp 1540 ------- 0 0.0 3.0 15 45
r 1.363882 1 2 tcp 1540 ------- 0 1.0 3.1 4 46
+ 1.363882 2 3 tcp 1540 ------- 0 1.0 3.1 4 46
r 1.371882 3 2 ack 40 ------- 0 3.0 0.0 14 47
+ 1.371882 2 0 ack 40 ------- 0 3.0 0.0 14 47
- 1.371882 2 0 ack 40 ------- 0 3.0 0.0 14 47
r 1.373882 2 3 tcp 1540 ------- 0 0.0 3.0 13 42
+ 1.373882 3 2 ack 40 ------- 0 3.0 0.0 14 48
- 1.373882 3 2 ack 40 ------- 0 3.0 0.0 14 48
- 1.376202 2 3 tcp 1540 ------- 0 1.0 3.1 4 46
r 1.381885 2 0 ack 40 ------- 0 3.0 0.0 14 47
+ 1.381885 0 2 tcp 1540 ------- 0 0.0 3.0 16 49
- 1.381885 0 2 tcp 1540 ------- 0 0.0 3.0 16 49
+ 1.381885 0 2 tcp 1540 ------- 0 0.0 3.0 17 50
- 1.382008 0 2 tcp 1540 ------- 0 0.0 3.0 17 50
r 1.384202 3 2 ack 40 ------- 0 3.0 0.0 14 48
+ 1.384202 2 0 ack 40 ------- 0 3.0 0.0 14 48
- 1.384202 2 0 ack 40 ------- 0 3.0 0.0 14 48
r 1.386202 2 3 tcp 1540 ------- 0 0.0 3.0 15 45
+ 1.386202 3 2 ack 40 ------- 0 3.0 0.0 15 51
- 1.386202 3 2 ack 40 ------- 0 3.0 0.0 15 51
r 1.392008 0 2 tcp 1540 ------- 0 0.0 3.0 16 49
+ 1.392008 2 3 tcp 1540 ------- 0 0.0 3.0 16 49
- 1.392008 2 3 tcp 1540 ------- 0 0.0 3.0 16 49
r 1.392131 0 2 tcp 1540 ------- 0 0.0 3.0 17 50
+ 1.392131 2 3 tcp 1540 ------- 0 0.0 3.0 17 50
r 1.394205 2 0 ack 40 ------- 0 3.0 0.0 14 48
+ 1.394205 0 2 tcp 1540 ------- 0 0.0 3.0 18 52
- 1.394205 0 2 tcp 1540 ------- 0 0.0 3.0 18 52
r 1.396522 3 2 ack 40 ------- 0 3.0 0.0 15 51
+ 1.396522 2 0 ack 40 ------- 0 3.0 0.0 15 51
- 1.396522 2 0 ack 40 ------- 0 3.0 0.0 15 51
r 1.398522 2 3 tcp 1540 ------- 0 1.0 3.1 4 46
+ 1.398522 3 2 ack 40 ------- 0 3.1 1.0 2 53
- 1.398522 3 2 ack 40 ------- 0 3.1 1.0 2 53
- 1.404328 2 3 tcp 1540 ------- 0 0.0 3.0 17 50
r 1.404328 0 2 tcp 1540 ------- 0 0.0 3.0 18 52
+ 1.404328 2 3 tcp 1540 ------- 0 0.0 3.0 18 52
r 1.406525 2 0 ack 40 ------- 0 3.0 0.0 15 51
r 1.408842 3 2 ack 40 ------- 0 3.1 1.0 2 53
+ 1.408842 2 1 ack 40 ------- 0 3.1 1.0 2 53
- 1.408842 2 1 ack 40 ------- 0 3.1 1.0 2 53
r 1.414328 2 3 tcp 1540 ------- 0 0.0 3.0 16 49
+ 1.414328 3 2 ack 40 ------- 0 3.0 0.0 16 54
- 1.414328 3 2 ack 40 ------- 0 3.0 0.0 16 54
- 1.416648 2 3 tcp 1540 ------- 0 0.0 3.0 18 52
r 1.418845 2 1 ack 40 ------- 0 3.1 1.0 2 53
+ 1.418845 1 2 tcp 1540 ------- 0 1.0 3.1 5 55
- 1.418845 1 2 tcp 1540 ------- 0 1.0 3.1 5 55
r 1.424648 3 2 ack 40 ------- 0 3.0 0.0 16 54
+ 1.424648 2 0 ack 40 ------- 0 3.0 0.0 16 54
- 1.424648 2 0 ack 40 ------- 0 3.0 0.0 16 54
r 1.426648 2 3 tcp 1540 ------- 0 0.0 3.0 17 50
+ 1.426648 3 2 ack 40 ------- 0 3.0 0.0 17 56
- 1.426648 3 2 ack 40 ------- 0 3.0 0.0 17 56
r 1.428968 1 2 tcp 1540 ------- 0 1.0 3.1 5 55
+ 1.428968 2 3 tcp 1540 ------- 0 1.0 3.1 5 55
- 1.428968 2 3 tcp 1540 ------- 0 1.0 3.1 5 55
r 1.434651 2 0 ack 40 ------- 0 3.0 0.0 16 54
+ 1.434651 0 2 tcp 1540 ------- 0 0.0 3.0 19 57
- 1.434651 0 2 tcp 1540 ------- 0 0.0 3.0 19 57
r 1.436968 3 2 ack 40 ------- 0 3.0 0.0 17 56
+ 1.436968 2 0 ack 40 ------- 0 3.0 0.0 17 56
- 1.436968 2 0 ack 40 ------- 0 3.0 0.0 17 56
r 1.438968 2 3 tcp 1540 ------- 0 0.0 3.0 18 52
+ 1.438968 3 2 ack 40 ------- 0 3.0 0.0 18 58
- 1.438968 3 2 ack 40 ------- 0 3.0 0.0 18 58
r 1.444774 0 2 tcp 1540 ------- 0 0.0 3.0 19 57
+ 1.444774 2 3 tcp 1540 ------- 0 0.0 3.0 19 57
- 1.444774 2 3 tcp 1540 ------- 0 0.0 3.0 19 57
r 1.446971 2 0 ack 40 ------- 0 3.0 0.0 17 56
+ 1.446971 0 2 tcp 1540 ------- 0 0.0 3.0 20 59
- 1.446971 0 2 tcp 1540 ------- 0 0.0 3.0 20 59
+ 1.446971 0 2 tcp 1540 ------- 0 0.0 3.0 21 60
- 1.447094 0 2 tcp 1540 ------- 0 0.0 3.0 21 60
r 1.449288 3 2 ack 40 ------- 0 3.0 0.0 18 58
+ 1.449288 2 0 ack 40 ------- 0 3.0 0.0 18 58
- 1.449288 2 0 ack 40 ------- 0 3.0 0.0 18 58
r 1.451288 2 3 tcp 1540 ------- 0 1.0 3.1 5 55
+ 1.451288 3 2 ack 40 ------- 0 3.1 1.0 2 61
- 1.451288 3 2 ack 40 ------- 0 3.1 1.0 2 61
r 1.457094 0 2 tcp 1540 ------- 0 0.0 3.0 20 59
+ 1.457094 2 3 tcp 1540 ------- 0 0.0 3.0 20 59
- 1.457094 2 3 tcp 1540 ------- 0 0.0 3.0 20 59
r 1.457218 0 2 tcp 1540 ------- 0 0.0 3.0 21 60
+ 1.457218 2 3 tcp 1540 ------- 0 0.0 3.0 21 60
r 1.459291 2 0 ack 40 ------- 0 3.0 0.0 18 58
+ 1.459291 0 2 tcp 1540 ------- 0 0.0 3.0 22 62
- 1.459291 0 2 tcp 1540 ------- 0 0.0 3.0 22 62
r 1.461608 3 2 ack 40 ------- 0 3.1 1.0 2 61
+ 1.461608 2 1 ack 40 ------- 0 3.1 1.0 2 61
- 1.461608 2 1 ack 40 ------- 0 3.1 1.0 2 61
r 1.467094 2 3 tcp 1540 ------- 0 0.0 3.0 19 57
+ 1.467094 3 2 ack 40 ------- 0 3.0 0.0 19 63
- 1.467094 3 2 ack 40 ------- 0 3.0 0.0 19 63
- 1.469414 2 3 tcp 1540 ------- 0 0.0 3.0 21 60
r 1.469414 0 2 tcp 1540 ------- 0 0.0 3.0 22 62
+ 1.469414 2 3 tcp 1540 ------- 0 0.0 3.0 22 62
r 1.471611 2 1 ack 40 ------- 0 3.1 1.0 2 61
+ 1.471611 1 2 tcp 1540 ------- 0 1.0 3.1 6 64
- 1.471611 1 2 tcp 1540 ------- 0 1.0 3.1 6 64
r 1.477414 3 2 ack 40 ------- 0 3.0 0.0 19 63
+ 1.477414 2 0 ack 40 ------- 0 3.0 0.0 19 63
- 1.477414 2 0 ack 40 ------- 0 3.0 0.0 19 63
r 1.479414 2 3 tcp 1540 ------- 0 0.0 3.0 20 59
+ 1.479414 3 2 ack 40 ------- 0 3.0 0.0 20 65
- 1.479414 3 2 ack 40 ------- 0 3.0 0.0 20 65
- 1.481734 2 3 tcp 1540 ------- 0 0.0 3.0 22 62
r 1.481734 1 2 tcp 1540 ------- 0 1.0 3.1 6 64
+ 1.481734 2 3 tcp 1540 ------- 0 1.0 3.1 6 64
r 1.487418 2 0 ack 40 ------- 0 3.0 0.0 19 63
+ 1.487418 0 2 tcp 1540 ------- 0 0.0 3.0 23 66
- 1.487418 0 2 tcp 1540 ------- 0 0.0 3.0 23 66
r 1.489734 3 2 ack 40 ------- 0 3.0 0.0 20 65
+ 1.489734 2 0 ack 40 ------- 0 3.0 0.0 20 65
- 1.489734 2 0 ack 40 ------- 0 3.0 0.0 20 65
r 1.491734 2 3 tcp 1540 ------- 0 0.0 3.0 21 60
+ 1.491734 3 2 ack 40 ------- 0 3.0 0.0 21 67
- 1.491734 3 2 ack 40 ------- 0 3.0 0.0 21 67
- 1.494054 2 3 tcp 1540 ------- 0 1.0 3.1 6 64
r 1.497541 0 2 tcp 1540 ------- 0 0.0 3.0 23 66
+ 1.497541 2 3 tcp 1540 ------- 0 0.0 3.0 23 66
r 1.499738 2 0 ack 40 ------- 0 3.0 0.0 20 65
+ 1.499738 0 2 tcp 1540 ------- 0 0.0 3.0 24 68
- 1.499738 0 2 tcp 1540 ------- 0 0.0 3.0 24 68
r 1.502054 3 2 ack 40 ------- 0 3.0 0.0 21 67
+ 1.502054 2 0 ack 40 ------- 0 3.0 0.0 21 67
- 1.502054 2 0 ack 40 ------- 0 3.0 0.0 21 67
r 1.504054 2 3 tcp 1540 ------- 0 0.0 3.0 22 62
+ 1.504054 3 2 ack 40 ------- 0 3.0 0.0 22 69
- 1.504054 3 2 ack 40 ------- 0 3.0 0.0 22 69
- 1.506374 2 3 tcp 1540 ------- 0 0.0 3.0 23 66
r 1.509861 0 2 tcp 1540 ------- 0 0.0 3.0 24 68
+ 1.509861 2 3 tcp 1540 ------- 0 0.0 3.0 24 68
r 1.512058 2 0 ack 40 ------- 0 3.0 0.0 21 67
+ 1.512058 0 2 tcp 1540 ------- 0 0.0 3.0 25 70
- 1.512058 0 2 tcp 1540 ------- 0 0.0 3.0 25 70
+ 1.512058 0 2 tcp 1540 ------- 0 0.0 3.0 26 71
- 1.512181 0 2 tcp 1540 ------- 0 0.0 3.0 26 71
r 1.514374 3 2 ack 40 ------- 0 3.0 0.0 22 69
+ 1.514374 2 0 ack 40 ------- 0 3.0 0.0 22 69
- 1.514374 2 0 ack 40 ------- 0 3.0 0.0 22 69
r 1.516374 2 3 tcp 1540 ------- 0 1.0 3.1 6 64
+ 1.516374 3 2 ack 40 ------- 0 3.1 1.0 2 72
- 1.516374 3 2 ack 40 ------- 0 3.1 1.0 2 72
- 1.518694 2 3 tcp 1540 ------- 0 0.0 3.0 24 68
r 1.522181 0 2 tcp 1540 ------- 0 0.0 3.0 25 70
+ 1.522181 2 3 tcp 1540 ------- 0 0.0 3.0 25 70
r 1.522304 0 2 tcp 1540 ------- 0 0.0 3.0 26 71
+ 1.522304 2 3 tcp 1540 ------- 0 0.0 3.0 26 71
d 1.522304 2 3 tcp 1540 ------- 0 0.0 3.0 26 71
r 1.524378 2 0 ack 40 ------- 0 3.0 0.0 22 69
+ 1.524378 0 2 tcp 1540 ------- 0 0.0 3.0 27 73
- 1.524378 0 2 tcp 1540 ------- 0 0.0 3.0 27 73
r 1.526694 3 2 ack 40 ------- 0 3.1 1.0 2 72
+ 1.526694 2 1 ack 40 ------- 0 3.1 1.0 2 72
- 1.526694 2 1 ack 40 ------- 0 3.1 1.0 2 72
r 1.528694 2 3 tcp 1540 ------- 0 0.0 3.0 23 66
+ 1.528694 3 2 ack 40 ------- 0 3.0 0.0 23 74
- 1.528694 3 2 ack 40 ------- 0 3.0 0.0 23 74
- 1.531014 2 3 tcp 1540 ------- 0 0.0 3.0 25 70
r 1.534501 0 2 tcp 1540 ------- 0 0.0 3.0 27 73
+ 1.534501 2 3 tcp 1540 ------- 0 0.0 3.0 27 73
r 1.536698 2 1 ack 40 ------- 0 3.1 1.0 2 72
r 1.539014 3 2 ack 40 ------- 0 3.0 0.0 23 74
+ 1.539014 2 0 ack 40 ------- 0 3.0 0.0 23 74
- 1.539014 2 0 ack 40 ------- 0 3.0 0.0 23 74
r 1.541014 2 3 tcp 1540 ------- 0 0.0 3.0 24 68
+ 1.541014 3 2 ack 40 ------- 0 3.0 0.0 24 75
- 1.541014 3 2 ack 40 ------- 0 3.0 0.0 24 75
- 1.543334 2 3 tcp 1540 ------- 0 0.0 3.0 27 73
r 1.549018 2 0 ack 40 ------- 0 3.0 0.0 23 74
+ 1.549018 0 2 tcp 1540 ------- 0 0.0 3.0 28 76
- 1.549018 0 2 tcp 1540 ------- 0 0.0 3.0 28 76
r 1.551334 3 2 ack 40 ------- 0 3.0 0.0 24 75
+ 1.551334 2 0 ack 40 ------- 0 3.0 0.0 24 75
- 1.551334 2 0 ack 40 ------- 0 3.0 0.0 24 75
r 1.553334 2 3 tcp 1540 ------- 0 0.0 3.0 25 70
+ 1.553334 3 2 ack 40 ------- 0 3.0 0.0 25 77
- 1.553334 3 2 ack 40 ------- 0 3.0 0.0 25 77
r 1.559141 0 2 tcp 1540 ------- 0 0.0 3.0 28 76
+ 1.559141 2 3 tcp 1540 ------- 0 0.0 3.0 28 76
- 1.559141 2 3 tcp 1540 ------- 0 0.0 3.0 28 76
r 1.561338 2 0 ack 40 ------- 0 3.0 0.0 24 75
+ 1.561338 0 2 tcp 1540 ------- 0 0.0 3.0 29 78
- 1.561338 0 2 tcp 1540 ------- 0 0.0 3.0 29 78
r 1.563654 3 2 ack 40 ------- 0 3.0 0.0 25 77
+ 1.563654 2 0 ack 40 ------- 0 3.0 0.0 25 77
- 1.563654 2 0 ack 40 ------- 0 3.0 0.0 25 77
r 1.565654 2 3 tcp 1540 ------- 0 0.0 3.0 27 73
+ 1.565654 3 2 ack 40 ------- 0 3.0 0.0 25 79
- 1.565654 3 2 ack 40 ------- 0 3.0 0.0 25 79
r 1.571461 0 2 tcp 1540 ------- 0 0.0 3.0 29 78
+ 1.571461 2 3 tcp 1540 ------- 0 0.0 3.0 29 78
- 1.571461 2 3 tcp 1540 ------- 0 0.0 3.0 29 78
r 1.573658 2 0 ack 40 ------- 0 3.0 0.0 25 77
+ 1.573658 0 2 tcp 1540 ------- 0 0.0 3.0 30 80
- 1.573658 0 2 tcp 1540 ------- 0 0.0 3.0 30 80
r 1.575974 3 2 ack 40 ------- 0 3.0 0.0 25 79
+ 1.575974 2 0 ack 40 ------- 0 3.0 0.0 25 79
- 1.575974 2 0 ack 40 ------- 0 3.0 0.0 25 79
r 1.581461 2 3 tcp 1540 ------- 0 0.0 3.0 28 76
+ 1.581461 3 2 ack 40 ------- 0 3.0 0.0 25 81
- 1.581461 3 2 ack 40 ------- 0 3.0 0.0 25 81
r 1.583781 0 2 tcp 1540 ------- 0 0.0 3.0 30 80
+ 1.583781 2 3 tcp 1540 ------- 0 0.0 3.0 30 80
- 1.583781 2 3 tcp 1540 ------- 0 0.0 3.0 30 80
r 1.585978 2 0 ack 40 ------- 0 3.0 0.0 25 79
+ 1.585978 0 2 tcp 1540 ------- 0 0.0 3.0 31 82
- 1.585978 0 2 tcp 1540 ------- 0 0.0 3.0 31 82
r 1.591781 3 2 ack 40 ------- 0 3.0 0.0 25 81
+ 1.591781 2 0 ack 40 ------- 0 3.0 0.0 25 81
- 1.591781 2 0 ack 40 ------- 0 3.0 0.0 25 81
r 1.593781 2 3 tcp 1540 ------- 0 0.0 3.0 29 78
+ 1.593781 3 2 ack 40 ------- 0 3.0 0.0 25 83
- 1.593781 3 2 ack 40 ------- 0 3.0 0.0 25 83
r 1.596101 0 2 tcp 1540 ------- 0 0.0 3.0 31 82
+ 1.596101 2 3 tcp 1540 ------- 0 0.0 3.0 31 82
- 1.596101 2 3 tcp 1540 ------- 0 0.0 3.0 31 82
r 1.601784 2 0 ack 40 ------- 0 3.0 0.0 25 81
+ 1.601784 0 2 tcp 1540 ------- 0 0.0 3.0 32 84
- 1.601784 0 2 tcp 1540 ------- 0 0.0 3.0 32 84
r 1.604101 3 2 ack 40 ------- 0 3.0 0.0 25 83
+ 1.604101 2 0 ack 40 ------- 0 3.0 0.0 25 83
- 1.604101 2 0 ack 40 ------- 0 3.0 0.0 25 83
r 1.606101 2 3 tcp 1540 ------- 0 0.0 3.0 30 80
+ 1.606101 3 2 ack 40 ------- 0 3.0 0.0 25 85
- 1.606101 3 2 ack 40 ------- 0 3.0 0.0 25 85
r 1.611907 0 2 tcp 1540 ------- 0 0.0 3.0 32 84
+ 1.611907 2 3 tcp 1540 ------- 0 0.0 3.0 32 84
- 1.611907 2 3 tcp 1540 ------- 0 0.0 3.0 32 84
r 1.614104 2 0 ack 40 ------- 0 3.0 0.0 25 83
+ 1.614104 0 2 tcp 1540 ---A--- 0 0.0 3.0 26 86
- 1.614104 0 2 tcp 1540 ---A--- 0 0.0 3.0 26 86
r 1.616421 3 2 ack 40 ------- 0 3.0 0.0 25 85
+ 1.616421 2 0 ack 40 ------- 0 3.0 0.0 25 85
- 1.616421 2 0 ack 40 ------- 0 3.0 0.0 25 85
r 1.618421 2 3 tcp 1540 ------- 0 0.0 3.0 31 82
+ 1.618421 3 2 ack 40 ------- 0 3.0 0.0 25 87
- 1.618421 3 2 ack 40 ------- 0 3.0 0.0 25 87
r 1.624227 0 2 tcp 1540 ---A--- 0 0.0 3.0 26 86
+ 1.624227 2 3 tcp 1540 ---A--- 0 0.0 3.0 26 86
- 1.624227 2 3 tcp 1540 ---A--- 0 0.0 3.0 26 86
r 1.626424 2 0 ack 40 ------- 0 3.0 0.0 25 85
r 1.628741 3 2 ack 40 ------- 0 3.0 0.0 25 87
+ 1.628741 2 0 ack 40 ------- 0 3.0 0.0 25 87
- 1.628741 2 0 ack 40 ------- 0 3.0 0.0 25 87
r 1.634227 2 3 tcp 1540 ------- 0 0.0 3.0 32 84
+ 1.634227 3 2 ack 40 ------- 0 3.0 0.0 25 88
- 1.634227 3 2 ack 40 ------- 0 3.0 0.0 25 88
r 1.638744 2 0 ack 40 ------- 0 3.0 0.0 25 87
r 1.644547 3 2 ack 40 ------- 0 3.0 0.0 25 88
+ 1.644547 2 0 ack 40 ------- 0 3.0 0.0 25 88
- 1.644547 2 0 ack 40 ------- 0 3.0 0.0 25 88
r 1.646547 2 3 tcp 1540 ---A--- 0 0.0 3.0 26 86
+ 1.646547 3 2 ack 40 ------- 0 3.0 0.0 32 89
- 1.646547 3 2 ack 40 ------- 0 3.0 0.0 32 89
r 1.65455 2 0 ack 40 ------- 0 3.0 0.0 25 88
r 1.656867 3 2 ack 40 ------- 0 3.0 0.0 32 89
+ 1.656867 2 0 ack 40 ------- 0 3.0 0.0 32 89
- 1.656867 2 0 ack 40 ------- 0 3.0 0.0 32 89
r 1.66687 2 0 ack 40 ------- 0 3.0 0.0 32 89
+ 1.66687 0 2 tcp 1540 ------- 0 0.0 3.0 33 90
- 1.66687 0 2 tcp 1540 ------- 0 0.0 3.0 33 90
+ 1.66687 0 2 tcp 1540 ------- 0 0.0 3.0 34 91
- 1.666994 0 2 tcp 1540 ------- 0 0.0 3.0 34 91
r 1.676994 0 2 tcp 1540 ------- 0 0.0 3.0 33 90
+ 1.676994 2 3 tcp 1540 ------- 0 0.0 3.0 33 90
- 1.676994 2 3 tcp 1540 ------- 0 0.0 3.0 33 90
r 1.677117 0 2 tcp 1540 ------- 0 0.0 3.0 34 91
+ 1.677117 2 3 tcp 1540 ------- 0 0.0 3.0 34 91
- 1.689314 2 3 tcp 1540 ------- 0 0.0 3.0 34 91
r 1.699314 2 3 tcp 1540 ------- 0 0.0 3.0 33 90
+ 1.699314 3 2 ack 40 ------- 0 3.0 0.0 33 92
- 1.699314 3 2 ack 40 ------- 0 3.0 0.0 33 92
r 1.709634 3 2 ack 40 ------- 0 3.0 0.0 33 92
+ 1.709634 2 0 ack 40 ------- 0 3.0 0.0 33 92
- 1.709634 2 0 ack 40 ------- 0 3.0 0.0 33 92
r 1.711634 2 3 tcp 1540 ------- 0 0.0 3.0 34 91
+ 1.711634 3 2 ack 40 ------- 0 3.0 0.0 34 93
- 1.711634 3 2 ack 40 ------- 0 3.0 0.0 34 93
r 1.719637 2 0 ack 40 ------- 0 3.0 0.0 33 92
+ 1.719637 0 2 tcp 1540 ------- 0 0.0 3.0 35 94
- 1.719637 0 2 tcp 1540 ------- 0 0.0 3.0 35 94
r 1.721954 3 2 ack 40 ------- 0 3.0 0.0 34 93
+ 1.721954 2 0 ack 40 ------- 0 3.0 0.0 34 93
- 1.721954 2 0 ack 40 ------- 0 3.0 0.0 34 93
r 1.72976 0 2 tcp 1540 ------- 0 0.0 3.0 35 94
+ 1.72976 2 3 tcp 1540 ------- 0 0.0 3.0 35 94
- 1.72976 2 3 tcp 1540 ------- 0 0.0 3.0 35 94
r 1.731957 2 0 ack 40 ------- 0 3.0 0.0 34 93
+ 1.731957 0 2 tcp 1540 ------- 0 0.0 3.0 36 95
- 1.731957 0 2 tcp 1540 ------- 0 0.0 3.0 36 95
r 1.74208 0 2 tcp 1540 ------- 0 0.0 3.0 36 95
+ 1.74208 2 3 tcp 1540 ------- 0 0.0 3.0 36 95
- 1.74208 2 3 tcp 1540 ------- 0 0.0 3.0 36 95
r 1.75208 2 3 tcp 1540 ------- 0 0.0 3.0 35 94
+ 1.75208 3 2 ack 40 ------- 0 3.0 0.0 35 96
- 1.75208 3 2 ack 40 ------- 0 3.0 0.0 35 96
+ 1.753758 1 2 tcp 1540 ---A--- 0 1.0 3.1 3 97
- 1.753758 1 2 tcp 1540 ---A--- 0 1.0 3.1 3 97
r 1.7624 3 2 ack 40 ------- 0 3.0 0.0 35 96
+ 1.7624 2 0 ack 40 ------- 0 3.0 0.0 35 96
- 1.7624 2 0 ack 40 ------- 0 3.0 0.0 35 96
r 1.763882 1 2 tcp 1540 ---A--- 0 1.0 3.1 3 97
+ 1.763882 2 3 tcp 1540 ---A--- 0 1.0 3.1 3 97
- 1.763882 2 3 tcp 1540 ---A--- 0 1.0 3.1 3 97
r 1.7644 2 3 tcp 1540 ------- 0 0.0 3.0 36 95
+ 1.7644 3 2 ack 40 ------- 0 3.0 0.0 36 98
- 1.7644 3 2 ack 40 ------- 0 3.0 0.0 36 98
r 1.772403 2 0 ack 40 ------- 0 3.0 0.0 35 96
+ 1.772403 0 2 tcp 1540 ------- 0 0.0 3.0 37 99
- 1.772403 0 2 tcp 1540 ------- 0 0.0 3.0 37 99
+ 1.772403 0 2 tcp 1540 ------- 0 0.0 3.0 38 100
- 1.772526 0 2 tcp 1540 ------- 0 0.0 3.0 38 100
r 1.77472 3 2 ack 40 ------- 0 3.0 0.0 36 98
+ 1.77472 2 0 ack 40 ------- 0 3.0 0.0 36 98
- 1.77472 2 0 ack 40 ------- 0 3.0 0.0 36 98
r 1.782526 0 2 tcp 1540 ------- 0 0.0 3.0 37 99
+ 1.782526 2 3 tcp 1540 ------- 0 0.0 3.0 37 99
- 1.782526 2 3 tcp 1540 ------- 0 0.0 3.0 37 99
r 1.78265 0 2 tcp 1540 ------- 0 0.0 3.0 38 100
+ 1.78265 2 3 tcp 1540 ------- 0 0.0 3.0 38 100
r 1.784723 2 0 ack 40 ------- 0 3.0 0.0 36 98
+ 1.784723 0 2 tcp 1540 ------- 0 0.0 3.0 39 101
- 1.784723 0 2 tcp 1540 ------- 0 0.0 3.0 39 101
r 1.786202 2 3 tcp 1540 ---A--- 0 1.0 3.1 3 97
+ 1.786202 3 2 ack 40 ------- 0 3.1 1.0 6 102
- 1.786202 3 2 ack 40 ------- 0 3.1 1.0 6 102
- 1.794846 2 3 tcp 1540 ------- 0 0.0 3.0 38 100
r 1.794846 0 2 tcp 1540 ------- 0 0.0 3.0 39 101
+ 1.794846 2 3 tcp 1540 ------- 0 0.0 3.0 39 101
r 1.796522 3 2 ack 40 ------- 0 3.1 1.0 6 102
+ 1.796522 2 1 ack 40 ------- 0 3.1 1.0 6 102
- 1.796522 2 1 ack 40 ------- 0 3.1 1.0 6 102
r 1.804846 2 3 tcp 1540 ------- 0 0.0 3.0 37 99
+ 1.804846 3 2 ack 40 ------- 0 3.0 0.0 37 103
- 1.804846 3 2 ack 40 ------- 0 3.0 0.0 37 103
r 1.806525 2 1 ack 40 ------- 0 3.1 1.0 6 102
+ 1.806525 1 2 tcp 1540 ------- 0 1.0 3.1 7 104
- 1.806525 1 2 tcp 1540 ------- 0 1.0 3.1 7 104
+ 1.806525 1 2 tcp 1540 ------- 0 1.0 3.1 8 105
- 1.806648 1 2 tcp 1540 ------- 0 1.0 3.1 8 105
- 1.807166 2 3 tcp 1540 ------- 0 0.0 3.0 39 101
r 1.815166 3 2 ack 40 ------- 0 3.0 0.0 37 103
+ 1.815166 2 0 ack 40 ------- 0 3.0 0.0 37 103
- 1.815166 2 0 ack 40 ------- 0 3.0 0.0 37 103
r 1.816648 1 2 tcp 1540 ------- 0 1.0 3.1 7 104
+ 1.816648 2 3 tcp 1540 ------- 0 1.0 3.1 7 104
r 1.816771 1 2 tcp 1540 ------- 0 1.0 3.1 8 105
+ 1.816771 2 3 tcp 1540 ------- 0 1.0 3.1 8 105
d 1.816771 2 3 tcp 1540 ------- 0 1.0 3.1 8 105
r 1.817166 2 3 tcp 1540 ------- 0 0.0 3.0 38 100
+ 1.817166 3 2 ack 40 ------- 0 3.0 0.0 38 106
- 1.817166 3 2 ack 40 ------- 0 3.0 0.0 38 106
- 1.819486 2 3 tcp 1540 ------- 0 1.0 3.1 7 104
r 1.82517 2 0 ack 40 ------- 0 3.0 0.0 37 103
+ 1.82517 0 2 tcp 1540 ------- 0 0.0 3.0 40 107
- 1.82517 0 2 tcp 1540 ------- 0 0.0 3.0 40 107
r 1.827486 3 2 ack 40 ------- 0 3.0 0.0 38 106
+ 1.827486 2 0 ack 40 ------- 0 3.0 0.0 38 106
- 1.827486 2 0 ack 40 ------- 0 3.0 0.0 38 106
r 1.829486 2 3 tcp 1540 ------- 0 0.0 3.0 39 101
+ 1.829486 3 2 ack 40 ------- 0 3.0 0.0 39 108
- 1.829486 3 2 ack 40 ------- 0 3.0 0.0 39 108
r 1.835293 0 2 tcp 1540 ------- 0 0.0 3.0 40 107
+ 1.835293 2 3 tcp 1540 ------- 0 0.0 3.0 40 107
- 1.835293 2 3 tcp 1540 ------- 0 0.0 3.0 40 107
r 1.83749 2 0 ack 40 ------- 0 3.0 0.0 38 106
+ 1.83749 0 2 tcp 1540 ------- 0 0.0 3.0 41 109
- 1.83749 0 2 tcp 1540 ------- 0 0.0 3.0 41 109
+ 1.83749 0 2 tcp 1540 ------- 0 0.0 3.0 42 110
- 1.837613 0 2 tcp 1540 ------- 0 0.0 3.0 42 110
r 1.839806 3 2 ack 40 ------- 0 3.0 0.0 39 108
+ 1.839806 2 0 ack 40 ------- 0 3.0 0.0 39 108