V -t * -v 1.0a5 -a 0
A -t * -n 1 -p 0 -o 0x7fffffff -c 30 -a 1
A -t * -h 1 -m 1073741823 -s 0
n -t * -a 0 -s 0 -S UP -v circle -c black -i black
n -t * -a 1 -s 1 -S UP -v circle -c black -i black
n -t * -a 2 -s 2 -S UP -v circle -c black -i black
n -t * -a 3 -s 3 -S UP -v circle -c black -i black
l -t * -s 0 -d 2 -S UP -r 2000000 -D 0.01 -c black
l -t * -s 1 -d 2 -S UP -r 2000000 -D 0.01 -c black
l -t * -s 2 -d 3 -S UP -r 1700000 -D 0.02 -c black
+ -t 1 -s 0 -d 2 -p cbr -e 210 -c 0 -i 0 -a 0 -x {0.0 2.0 0 ------- null}
- -t 1 -s 0 -d 2 -p cbr -e 210 -c 0 -i 0 -a 0 -x {0.0 2.0 0 ------- null}
h -t 1 -s 0 -d 2 -p cbr -e 210 -c 0 -i 0 -a 0 -x {0.0 2.0 -1 ------- null}
+ -t 1.00375 -s 0 -d 2 -p cbr -e 210 -c 0 -i 1 -a 0 -x {0.0 2.0 1 ------- null}
- -t 1.00375 -s 0 -d 2 -p cbr -e 210 -c 0 -i 1 -a 0 -x {0.0 2.0 1 ------- null}
h -t 1.00375 -s 0 -d 2 -p cbr -e 210 -c 0 -i 1 -a 0 -x {0.0 2.0 -1 ------- null}
+ -t 1.0075 -s 0 -d 2 -p cbr -e 210 -c 0 -i 2 -a 0 -x {0.0 2.0 2 ------- null}
- -t 1.0075 -s 0 -d 2 -p cbr -e 210 -c 0 -i 2 -a 0 -x {0.0 2.0 2 ------- null}
h -t 1.0075 -s 0 -d 2 -p cbr -e 210 -c 0 -i 2 -a 0 -x {0.0 2.0 -1 ------- null}
r -t 1.01084 -s 0 -d 2 -p cbr -e 210 -c 0 -i 0 -a 0 -x {0.0 2.0 0 ------- null}
+ -t 1.01125 -s 0 -d 2 -p cbr -e 210 -c 0 -i 3 -a 0 -x {0.0 2.0 3 ------- null}
- -t 1.01125 -s 0 -d 2 -p cbr -e 210 -c 0 -i 3 -a 0 -x {0.0 2.0 3 ------- null}
h -t 1.01125 -s 0 -d 2 -p cbr -e 210 -c 0 -i 3 -a 0 -x {0.0 2.0 -1 ------- null}
r -t 1.01459 -s 0 -d 2 -p cbr -e 210 -c 0 -i 1 -a 0 -x {0.0 2.0 1 ------- null}
+ -t 1.015 -s 0 -d 2 -p cbr -e 210 -c 0 -i 4 -a 0 -x {0.0 2.0 4 ------- null}
- -t 1.015 -s 0 -d 2 -p cbr -e 210 -c 0 -i 4 -a 0 -x {0.0 2.0 4 ------- null}
h -t 1.015 -s 0 -d 2 -p cbr -e 210 -c 0 -i 4 -a 0 -x {0.0 2.0 -1 ------- null}
r -t 1.01834 -s 0 -d 2 -p cbr -e 210 -c 0 -i 2 -a 0 -x {0.0 2.0 2 ------- null}
+ -t 1.01875 -s 0 -d 2 -p cbr -e 210 -c 0 -i 5 -a 0 -x {0.0 2.0 5 ------- null}
- -t 1.01875 -s 0 -d 2 -p cbr -e 210 -c 0 -i 5 -a 0 -x {0.0 2.0 5 ------- null}
h -t 1.01875 -s 0 -d 2 -p cbr -e 210 -c 0 -i 5 -a 0 -x {0.0 2.0 -1 ------- null}
r -t 1.02209 -s 0 -d 2 -p cbr -e 210 -c 0 -i 3 -a 0 -x {0.0 2.0 3 ------- null}
+ -t 1.0225 -s 0 -d 2 -p cbr -e 210 -c 0 -i 6 -a 0 -x {0.0 2.0 6 ------- null}
- -t 1.0225 -s 0 -d 2 -p cbr -e 210 -c 0 -i 6 -a 0 -x {0.0 2.0 6 ------- null}
h -t 1.0225 -s 0 -d 2 -p cbr -e 210 -c 0 -i 6 -a 0 -x {0.0 2.0 -1 ------- null}
r -t 1.02584 -s 0 -d 2 -p cbr -e 210 -c 0 -i 4 -a 0 -x {0.0 2.0 4 ------- null}
+ -t 1.02625 -s 0 -d 2 -p cbr -e 210 -c 0 -i 7 -a 0 -x {0.0 2.0 7 ------- null}
- -t 1.02625 -s 0 -d 2 -p cbr -e 210 -c 0 -i 7 -a 0 -x {0.0 2.0 7 ------- null}
h -t 1.02625 -s 0 -d 2 -p cbr -e 210 -c 0 -i 7 -a 0 -x {0.0 2.0 -1 ------- null}
r -t 1.02959 -s 0 -d 2 -p cbr -e 210 -c 0 -i 5 -a 0 -x {0.0 2.0 5 ------- null}
+ -t 1.03 -s 0 -d 2 -p cbr -e 210 -c 0 -i 8 -a 0 -x {0.0 2.0 8 ------- null}
- -t 1.03 -s 0 -d 2 -p cbr -e 210 -c 0 -i 8 -a 0 -x {0.0 2.0 8 ------- null}
h -t 1.03 -s 0 -d 2 -p cbr -e 210 -c 0 -i 8 -a 0 -x {0.0 2.0 -1 ------- null}
r -t 1.03334 -s 0 -d 2 -p cbr -e 210 -c 0 -i 6 -a 0 -x {0.0 2.0 6 ------- null}
+ -t 1.03375 -s 0 -d 2 -p cbr -e 210 -c 0 -i 9 -a 0 -x {0.0 2.0 9 ------- null}
- -t 1.03375 -s 0 -d 2 -p cbr -e 210 -c 0 -i 9 -a 0 -x {0.0 2.0 9 ------- null}
h -t 1.03375 -s 0 -d 2 -p cbr -e 210 -c 0 -i 9 -a 0 -x {0.0 2.0 -1 ------- null}
r -t 1.03709 -s 0 -d 2 -p cbr -e 210 -c 0 -i 7 -a 0 -x {0.0 2.0 7 ------- null}
+ -t 1.0375 -s 0 -d 2 -p cbr -e 210 -c 0 -i 10 -a 0 -x {0.0 2.0 10 ------- null}
- -t 1.0375 -s 0 -d 2 -p cbr -e 210 -c 0 -i 10 -a 0 -x {0.0 2.0 10 ------- null}
h -t 1.0375 -s 0 -d 2 -p cbr -e 210 -c 0 -i 10 -a 0 -x {0.0 2.0 -1 ------- null}
r -t 1.04084 -s 0 -d 2 -p cbr -e 210 -c 0 -i 8 -a 0 -x {0.0 2.0 8 ------- null}
+ -t 1.04125 -s 0 -d 2 -p cbr -e 210 -c 0 -i 11 -a 0 -x {0.0 2.0 11 ------- null}
- -t 1.04125 -s 0 -d 2 -p cbr -e 210 -c 0 -i 11 -a 0 -x {0.0 2.0 11 ------- null}
h -t 1.04125 -s 0 -d 2 -p cbr -e 210 -c 0 -i 11 -a 0 -x {0.0 2.0 -1 ------- null}
r -t 1.04459 -s 0 -d 2 -p cbr -e 210 -c 0 -i 9 -a 0 -x {0.0 2.0 9 ------- null}
+ -t 1.045 -s 0 -d 2 -p cbr -e 210 -c 0 -i 12 -a 0 -x {0.0 2.0 12 ------- null}
- -t 1.045 -s 0 -d 2 -p cbr -e 210 -c 0 -i 12 -a 0 -x {0.0 2.0 12 ------- null}
h -t 1.045 -s 0 -d 2 -p cbr -e 210 -c 0 -i 12 -a 0 -x {0.0 2.0 -1 ------- null}
r -t 1.04834 -s 0 -d 2 -p cbr -e 210 -c 0 -i 10 -a 0 -x {0.0 2.0 10 ------- null}
+ -t 1.04875 -s 0 -d 2 -p cbr -e 210 -c 0 -i 13 -a 0 -x {0.0 2.0 13 ------- null}
- -t 1.04875 -s 0 -d 2 -p cbr -e 210 -c 0 -i 13 -a 0 -x {0.0 2.0 13 ------- null}
h -t 1.04875 -s 0 -d 2 -p cbr -e 210 -c 0 -i 13 -a 0 -x {0.0 2.0 -1 ------- null}
r -t 1.05209 -s 0 -d 2 -p cbr -e 210 -c 0 -i 11 -a 0 -x {0.0 2.0 11 ------- null}
+ -t 1.0525 -s 0 -d 2 -p cbr -e 210 -c 0 -i 14 -a 0 -x {0.0 2.0 14 ------- null}
- -t 1.0525 -s 0 -d 2 -p cbr -e 210 -c 0 -i 14 -a 0 -x {0.0 2.0 14 ------- null}
h -t 1.0525 -s 0 -d 2 -p cbr -e 210 -c 0 -i 14 -a 0 -x {0.0 2.0 -1 ------- null}
r -t 1.05584 -s 0 -d 2 -p cbr -e 210 -c 0 -i 12 -a 0 -x {0.0 2.0 12 ------- null}
+ -t 1.05625 -s 0 -d 2 -p cbr -e 210 -c 0 -i 15 -a 0 -x {0.0 2.0 15 ------- null}
- -t 1.05625 -s 0 -d 2 -p cbr -e 210 -c 0 -i 15 -a 0 -x {0.0 2.0 15 ------- null}
h -t 1.05625 -s 0 -d 2 -p cbr -e 210 -c 0 -i 15 -a 0 -x {0.0 2.0 -1 ------- null}
r -t 1.05959 -s 0 -d 2 -p cbr -e 210 -c 0 -i 13 -a 0 -x {0.0 2.0 13 ------- null}
+ -t 1.06 -s 0 -d 2 -p cbr -e 210 -c 0 -i 16 -a 0 -x {0.0 2.0 16 ------- null}
- -t 1.06 -s 0 -d 2 -p cbr -e 210 -c 0 -i 16 -a 0 -x {0.0 2.0 16 ------- null}
h -t 1.06 -s 0 -d 2 -p cbr -e 210 -c 0 -i 16 -a 0 -x {0.0 2.0 -1 ------- null}
r -t 1.06334 -s 0 -d 2 -p cbr -e 210 -c 0 -i 14 -a 0 -x {0.0 2.0 14 ------- null}
+ -t 1.06375 -s 0 -d 2 -p cbr -e 210 -c 0 -i 17 -a 0 -x {0.0 2.0 17 ------- null}
- -t 1.06375 -s 0 -d 2 -p cbr -e 210 -c 0 -i 17 -a 0 -x {0.0 2.0 17 ------- null}
h -t 1.06375 -s 0 -d 2 -p cbr -e 210 -c 0 -i 17 -a 0 -x {0.0 2.0 -1 ------- null}
r -t 1.06709 -s 0 -d 2 -p cbr -e 210 -c 0 -i 15 -a 0 -x {0.0 2.0 15 ------- null}
+ -t 1.0675 -s 0 -d 2 -p cbr -e 210 -c 0 -i 18 -a 0 -x {0.0 2.0 18 ------- null}
- -t 1.0675 -s 0 -d 2 -p cbr -e 210 -c 0 -i 18 -a 0 -x {0.0 2.0 18 ------- null}
h -t 1.0675 -s 0 -d 2 -p cbr -e 210 -c 0 -i 18 -a 0 -x {0.0 2.0 -1 ------- null}
r -t 1.07084 -s 0 -d 2 -p cbr -e 210 -c 0 -i 16 -a 0 -x {0.0 2.0 16 ------- null}
+ -t 1.07125 -s 0 -d 2 -p cbr -e 210 -c 0 -i 19 -a 0 -x {0.0 2.0 19 ------- null}
- -t 1.07125 -s 0 -d 2 -p cbr -e 210 -c 0 -i 19 -a 0 -x {0.0 2.0 19 ------- null}
h -t 1.07125 -s 0 -d 2 -p cbr -e 210 -c 0 -i 19 -a 0 -x {0.0 2.0 -1 ------- null}
r -t 1.07459 -s 0 -d 2 -p cbr -e 210 -c 0 -i 17 -a 0 -x {0.0 2.0 17 ------- null}
+ -t 1.075 -s 0 -d 2 -p cbr -e 210 -c 0 -i 20 -a 0 -x {0.0 2.0 20 ------- null}
- -t 1.075 -s 0 -d 2 -p cbr -e 210 -c 0 -i 20 -a 0 -x {0.0 2.0 20 ------- null}
h -t 1.075 -s 0 -d 2 -p cbr -e 210 -c 0 -i 20 -a 0 -x {0.0 2.0 -1 ------- null}
r -t 1.07834 -s 0 -d 2 -p cbr -e 210 -c 0 -i 18 -a 0 -x {0.0 2.0 18 ------- null}
+ -t 1.07875 -s 0 -d 2 -p cbr -e 210 -c 0 -i 21 -a 0 -x {0.0 2.0 21 ------- null}
- -t 1.07875 -s 0 -d 2 -p cbr -e 210 -c 0 -i 21 -a 0 -x {0.0 2.0 21 ------- null}
h -t 1.07875 -s 0 -d 2 -p cbr -e 210 -c 0 -i 21 -a 0 -x {0.0 2.0 -1 ------- null}
r -t 1.08209 -s 0 -d 2 -p cbr -e 210 -c 0 -i 19 -a 0 -x {0.0 2.0 19 ------- null}
+ -t 1.0825 -s 0 -d 2 -p cbr -e 210 -c 0 -i 22 -a 0 -x {0.0 2.0 22 ------- null}
- -t 1.0825 -s 0 -d 2 -p cbr -e 210 -c 0 -i 22 -a 0 -x {0.0 2.0 22 ------- null}
h -t 1.0825 -s 0 -d 2 -p cbr -e 210 -c 0 -i 22 -a 0 -x {0.0 2.0 -1 ------- null}
r -t 1.08584 -s 0 -d 2 -p cbr -e 210 -c 0 -i 20 -a 0 -x {0.0 2.0 20 ------- null}
+ -t 1.08625 -s 0 -d 2 -p cbr -e 210 -c 0 -i 23 -a 0 -x {0.0 2.0 23 ------- null}
- -t 1.08625 -s 0 -d 2 -p cbr -e 210 -c 0 -i 23 -a 0 -x {0.0 2.0 23 ------- null}
h -t 1.08625 -s 0 -d 2 -p cbr -e 210 -c 0 -i 23 -a 0 -x {0.0 2.0 -1 ------- null}
r -t 1.08959 -s 0 -d 2 -p cbr -e 210 -c 0 -i 21 -a 0 -x {0.0 2.0 21 ------- null}
+ -t 1.09 -s 0 -d 2 -p cbr -e 210 -c 0 -i 24 -a 0 -x {0.0 2.0 24 ------- null}
- -t 1.09 -s 0 -d 2 -p cbr -e 210 -c 0 -i 24 -a 0 -x {0.0 2.0 24 ------- null}
h -t 1.09 -s 0 -d 2 -p cbr -e 210 -c 0 -i 24 -a 0 -x {0.0 2.0 -1 ------- null}
r -t 1.09334 -s 0 -d 2 -p cbr -e 210 -c 0 -i 22 -a 0 -x {0.0 2.0 22 ------- null}
+ -t 1.09375 -s 0 -d 2 -p cbr -e 210 -c 0 -i 25 -a 0 -x {0.0 2.0 25 ------- null}
- -t 1.09375 -s 0 -d 2 -p cbr -e 210 -c 0 -i 25 -a 0 -x {0.0 2.0 25 ------- null}
h -t 1.09375 -s 0 -d 2 -p cbr -e 210 -c 0 -i 25 -a 0 -x {0.0 2.0 -1 ------- null}
r -t 1.09709 -s 0 -d 2 -p cbr -e 210 -c 0 -i 23 -a 0 -x {0.0 2.0 23 ------- null}
+ -t 1.0975 -s 0 -d 2 -p cbr -e 210 -c 0 -i 26 -a 0 -x {0.0 2.0 26 ------- null}
- -t 1.0975 -s 0 -d 2 -p cbr -e 210 -c 0 -i 26 -a 0 -x {0.0 2.0 26 ------- null}
h -t 1.0975 -s 0 -d 2 -p cbr -e 210 -c 0 -i 26 -a 0 -x {0.0 2.0 -1 ------- null}
r -t 1.10084 -s 0 -d 2 -p cbr -e 210 -c 0 -i 24 -a 0 -x {0.0 2.0 24 ------- null}
+ -t 1.10125 -s 0 -d 2 -p cbr -e 210 -c 0 -i 27 -a 0 -x {0.0 2.0 27 ------- null}
- -t 1.10125 -s 0 -d 2 -p cbr -e 210 -c 0 -i 27 -a 0 -x {0.0 2.0 27 ------- null}
h -t 1.10125 -s 0 -d 2 -p cbr -e 210 -c 0 -i 27 -a 0 -x {0.0 2.0 -1 ------- null}
r -t 1.10459 -s 0 -d 2 -p cbr -e 210 -c 0 -i 25 -a 0 -x {0.0 2.0 25 ------- null}
+ -t 1.105 -s 0 -d 2 -p cbr -e 210 -c 0 -i 28 -a 0 -x {0.0 2.0 28 ------- null}
- -t 1.105 -s 0 -d 2 -p cbr -e 210 -c 0 -i 28 -a 0 -x {0.0 2.0 28 ------- null}
h -t 1.105 -s 0 -d 2 -p cbr -e 210 -c 0 -i 28 -a 0 -x {0.0 2.0 -1 ------- null}
r -t 1.10834 -s 0 -d 2 -p cbr -e 210 -c 0 -i 26 -a 0 -x {0.0 2.0 26 ------- null}
+ -t 1.10875 -s 0 -d 2 -p cbr -e 210 -c 0 -i 29 -a 0 -x {0.0 2.0 29 ------- null}
- -t 1.10875 -s 0 -d 2 -p cbr -e 210 -c 0 -i 29 -a 0 -x {0.0 2.0 29 ------- null}
h -t 1.10875 -s 0 -d 2 -p cbr -e 210 -c 0 -i 29 -a 0 -x {0.0 2.0 -1 ------- null}
r -t 1.11209 -s 0 -d 2 -p cbr -e 210 -c 0 -i 27 -a 0 -x {0.0 2.0 27 ------- null}
+ -t 1.1125 -s 0 -d 2 -p cbr -e 210 -c 0 -i 30 -a 0 -x {0.0 2.0 30 ------- null}
- -t 1.1125 -s 0 -d 2 -p cbr -e 210 -c 0 -i 30 -a 0 -x {0.0 2.0 30 ------- null}
h -t 1.1125 -s 0 -d 2 -p cbr -e 210 -c 0 -i 30 -a 0 -x {0.0 2.0 -1 ------- null}
r -t 1.11584 -s 0 -d 2 -p cbr -e 210 -c 0 -i 28 -a 0 -x {0.0 2.0 28 ------- null}
+ -t 1.11625 -s 0 -d 2 -p cbr -e 210 -c 0 -i 31 -a 0 -x {0.0 2.0 31 ------- null}
- -t 1.11625 -s 0 -d 2 -p cbr -e 210 -c 0 -i 31 -a 0 -x {0.0 2.0 31 ------- null}
h -t 1.11625 -s 0 -d 2 -p cbr -e 210 -c 0 -i 31 -a 0 -x {0.0 2.0 -1 ------- null}
r -t 1.11959 -s 0 -d 2 -p cbr -e 210 -c 0 -i 29 -a 0 -x {0.0 2.0 29 ------- null}
+ -t 1.12 -s 0 -d 2 -p cbr -e 210 -c 0 -i 32 -a 0 -x {0.0 2.0 32 ------- null}
- -t 1.12 -s 0 -d 2 -p cbr -e 210 -c 0 -i 32 -a 0 -x {0.0 2.0 32 ------- null}
h -t 1.12 -s 0 -d 2 -p cbr -e 210 -c 0 -i 32 -a 0 -x {0.0 2.0 -1 ------- null}
r -t 1.12334 -s 0 -d 2 -p cbr -e 210 -c 0 -i 30 -a 0 -x {0.0 2.0 30 ------- null}
+ -t 1.12375 -s 0 -d 2 -p cbr -e 210 -c 0 -i 33 -a 0 -x {0.0 2.0 33 ------- null}
- -t 1.12375 -s 0 -d 2 -p cbr -e 210 -c 0 -i 33 -a 0 -x {0.0 2.0 33 ------- null}
h -t 1.12375 -s 0 -d 2 -p cbr -e 210 -c 0 -i 33 -a 0 -x {0.0 2.0 -1 ------- null}
r -t 1.12709 -s 0 -d 2 -p cbr -e 210 -c 0 -i 31 -a 0 -x {0.0 2.0 31 ------- null}
+ -t 1.1275 -s 0 -d 2 -p cbr -e 210 -c 0 -i 34 -a 0 -x {0.0 2.0 34 ------- null}
- -t 1.1275 -s 0 -d 2 -p cbr -e 210 -c 0 -i 34 -a 0 -x {0.0 2.0 34 ------- null}
h -t 1.1275 -s 0 -d 2 -p cbr -e 210 -c 0 -i 34 -a 0 -x {0.0 2.0 -1 ------- null}
r -t 1.13084 -s 0 -d 2 -p cbr -e 210 -c 0 -i 32 -a 0 -x {0.0 2.0 32 ------- null}
+ -t 1.13125 -s 0 -d 2 -p cbr -e 210 -c 0 -i 35 -a 0 -x {0.0 2.0 35 ------- null}
- -t 1.13125 -s 0 -d 2 -p cbr -e 210 -c 0 -i 35 -a 0 -x {0.0 2.0 35 ------- null}
h -t 1.13125 -s 0 -d 2 -p cbr -e 210 -c 0 -i 35 -a 0 -x {0.0 2.0 -1 ------- null}
r -t 1.13459 -s 0 -d 2 -p cbr -e 210 -c 0 -i 33 -a 0 -x {0.0 2.0 33 ------- null}
+ -t 1.135 -s 0 -d 2 -p cbr -e 210 -c 0 -i 36 -a 0 -x {0.0 2.0 36 ------- null}
- -t 1.135 -s 0 -d 2 -p cbr -e 210 -c 0 -i 36 -a 0 -x {0.0 2.0 36 ------- null}
h -t 1.135 -s 0 -d 2 -p cbr -e 210 -c 0 -i 36 -a 0 -x {0.0 2.0 -1 ------- null}
r -t 1.13834 -s 0 -d 2 -p cbr -e 210 -c 0 -i 34 -a 0 -x {0.0 2.0 34 ------- null}
+ -t 1.13875 -s 0 -d 2 -p cbr -e 210 -c 0 -i 37 -a 0 -x {0.0 2.0 37 ------- null}
- -t 1.13875 -s 0 -d 2 -p cbr -e 210 -c 0 -i 37 -a 0 -x {0.0 2.0 37 ------- null}
h -t 1.13875 -s 0 -d 2 -p cbr -e 210 -c 0 -i 37 -a 0 -x {0.0 2.0 -1 ------- null}
r -t 1.14209 -s 0 -d 2 -p cbr -e 210 -c 0 -i 35 -a 0 -x {0.0 2.0 35 ------- null}
+ -t 1.1425 -s 0 -d 2 -p cbr -e 210 -c 0 -i 38 -a 0 -x {0.0 2.0 38 ------- null}
- -t 1.1425 -s 0 -d 2 -p cbr -e 210 -c 0 -i 38 -a 0 -x {0.0 2.0 38 ------- null}
h -t 1.1425 -s 0 -d 2 -p cbr -e 210 -c 0 -i 38 -a 0 -x {0.0 2.0 -1 ------- null}
r -t 1.14584 -s 0 -d 2 -p cbr -e 210 -c 0 -i 36 -a 0 -x {0.0 2.0 36 ------- null}
+ -t 1.14625 -s 0 -d 2 -p cbr -e 210 -c 0 -i 39 -a 0 -x {0.0 2.0 39 ------- null}
- -t 1.14625 -s 0 -d 2 -p cbr -e 210 -c 0 -i 39 -a 0 -x {0.0 2.0 39 ------- null}
h -t 1.14625 -s 0 -d 2 -p cbr -e 210 -c 0 -i 39 -a 0 -x {0.0 2.0 -1 ------- null}
r -t 1.14959 -s 0 -d 2 -p cbr -e 210 -c 0 -i 37 -a 0 -x {0.0 2.0 37 ------- null}
+ -t 1.15 -s 0 -d 2 -p cbr -e 210 -c 0 -i 40 -a 0 -x {0.0 2.0 40 ------- null}
- -t 1.15 -s 0 -d 2 -p cbr -e 210 -c 0 -i 40 -a 0 -x {0.0 2.0 40 ------- null}
h -t 1.15 -s 0 -d 2 -p cbr -e 210 -c 0 -i 40 -a 0 -x {0.0 2.0 -1 ------- null}
r -t 1.15334 -s 0 -d 2 -p cbr -e 210 -c 0 -i 38 -a 0 -x {0.0 2.0 38 ------- null}
+ -t 1.15375 -s 0 -d 2 -p cbr -e 210 -c 0 -i 41 -a 0 -x {0.0 2.0 41 ------- null}
- -t 1.15375 -s 0 -d 2 -p cbr -e 210 -c 0 -i 41 -a 0 -x {0.0 2.0 41 ------- null}
h -t 1.15375 -s 0 -d 2 -p cbr -e 210 -c 0 -i 41 -a 0 -x {0.0 2.0 -1 ------- null}
r -t 1.15709 -s 0 -d 2 -p cbr -e 210 -c 0 -i 39 -a 0 -x {0.0 2.0 39 ------- null}
+ -t 1.1575 -s 0 -d 2 -p cbr -e 210 -c 0 -i 42 -a 0 -x {0.0 2.0 42 ------- null}
- -t 1.1575 -s 0 -d 2 -p cbr -e 210 -c 0 -i 42 -a 0 -x {0.0 2.0 42 ------- null}
h -t 1.1575 -s 0 -d 2 -p cbr -e 210 -c 0 -i 42 -a 0 -x {0.0 2.0 -1 ------- null}
r -t 1.16084 -s 0 -d 2 -p cbr -e 210 -c 0 -i 40 -a 0 -x {0.0 2.0 40 ------- null}
+ -t 1.16125 -s 0 -d 2 -p cbr -e 210 -c 0 -i 43 -a 0 -x {0.0 2.0 43 ------- null}
- -t 1.16125 -s 0 -d 2 -p cbr -e 210 -c 0 -i 43 -a 0 -x {0.0 2.0 43 ------- null}
h -t 1.16125 -s 0 -d 2 -p cbr -e 210 -c 0 -i 43 -a 0 -x {0.0 2.0 -1 ------- null}
r -t 1.16459 -s 0 -d 2 -p cbr -e 210 -c 0 -i 41 -a 0 -x {0.0 2.0 41 ------- null}
+ -t 1.165 -s 0 -d 2 -p cbr -e 210 -c 0 -i 44 -a 0 -x {0.0 2.0 44 ------- null}
- -t 1.165 -s 0 -d 2 -p cbr -e 210 -c 0 -i 44 -a 0 -x {0.0 2.0 44 ------- null}
h -t 1.165 -s 0 -d 2 -p cbr -e 210 -c 0 -i 44 -a 0 -x {0.0 2.0 -1 ------- null}
r -t 1.16834 -s 0 -d 2 -p cbr -e 210 -c 0 -i 42 -a 0 -x {0.0 2.0 42 ------- null}
+ -t 1.16875 -s 0 -d 2 -p cbr -e 210 -c 0 -i 45 -a 0 -x {0.0 2.0 45 ------- null}
- -t 1.16875 -s 0 -d 2 -p cbr -e 210 -c 0 -i 45 -a 0 -x {0.0 2.0 45 ------- null}
h -t 1.16875 -s 0 -d 2 -p cbr -e 210 -c 0 -i 45 -a 0 -x {0.0 2.0 -1 ------- null}
r -t 1.17209 -s 0 -d 2 -p cbr -e 210 -c 0 -i 43 -a 0 -x {0.0 2.0 43 ------- null}
+ -t 1.1725 -s 0 -d 2 -p cbr -e 210 -c 0 -i 46 -a 0 -x {0.0 2.0 46 ------- null}
- -t 1.1725 -s 0 -d 2 -p cbr -e 210 -c 0 -i 46 -a 0 -x {0.0 2.0 46 ------- null}
h -t 1.1725 -s 0 -d 2 -p cbr -e 210 -c 0 -i 46 -a 0 -x {0.0 2.0 -1 ------- null}
r -t 1.17584 -s 0 -d 2 -p cbr -e 210 -c 0 -i 44 -a 0 -x {0.0 2.0 44 ------- null}
+ -t 1.17625 -s 0 -d 2 -p cbr -e 210 -c 0 -i 47 -a 0 -x {0.0 2.0 47 ------- null}
- -t 1.17625 -s 0 -d 2 -p cbr -e 210 -c 0 -i 47 -a 0 -x {0.0 2.0 47 ------- null}
h -t 1.17625 -s 0 -d 2 -p cbr -e 210 -c 0 -i 47 -a 0 -x {0.0 2.0 -1 ------- null}
r -t 1.17959 -s 0 -d 2 -p cbr -e 210 -c 0 -i 45 -a 0 -x {0.0 2.0 45 ------- null}
+ -t 1.18 -s 0 -d 2 -p cbr -e 210 -c 0 -i 48 -a 0 -x {0.0 2.0 48 ------- null}
- -t 1.18 -s 0 -d 2 -p cbr -e 210 -c 0 -i 48 -a 0 -x {0.0 2.0 48 ------- null}
h -t 1.18 -s 0 -d 2 -p cbr -e 210 -c 0 -i 48 -a 0 -x {0.0 2.0 -1 ------- null}
r -t 1.18334 -s 0 -d 2 -p cbr -e 210 -c 0 -i 46 -a 0 -x {0.0 2.0 46 ------- null}
+ -t 1.18375 -s 0 -d 2 -p cbr -e 210 -c 0 -i 49 -a 0 -x {0.0 2.0 49 ------- null}
- -t 1.18375 -s 0 -d 2 -p cbr -e 210 -c 0 -i 49 -a 0 -x {0.0 2.0 49 ------- null}
h -t 1.18375 -s 0 -d 2 -p cbr -e 210 -c 0 -i 49 -a 0 -x {0.0 2.0 -1 ------- null}
r -t 1.18709 -s 0 -d 2 -p cbr -e 210 -c 0 -i 47 -a 0 -x {0.0 2.0 47 ------- null}
+ -t 1.1875 -s 0 -d 2 -p cbr -e 210 -c 0 -i 50 -a 0 -x {0.0 2.0 50 ------- null}
- -t 1.1875 -s 0 -d 2 -p cbr -e 210 -c 0 -i 50 -a 0 -x {0.0 2.0 50 ------- null}
h -t 1.1875 -s 0 -d 2 -p cbr -e 210 -c 0 -i 50 -a 0 -x {0.0 2.0 -1 ------- null}
r -t 1.19084 -s 0 -d 2 -p cbr -e 210 -c 0 -i 48 -a 0 -x {0.0 2.0 48 ------- null}
+ -t 1.19125 -s 0 -d 2 -p cbr -e 210 -c 0 -i 51 -a 0 -x {0.0 2.0 51 ------- null}
- -t 1.19125 -s 0 -d 2 -p cbr -e 210 -c 0 -i 51 -a 0 -x {0.0 2.0 51 ------- null}
h -t 1.19125 -s 0 -d 2 -p cbr -e 210 -c 0 -i 51 -a 0 -x {0.0 2.0 -1 ------- null}
r -t 1.19459 -s 0 -d 2 -p cbr -e 210 -c 0 -i 49 -a 0 -x {0.0 2.0 49 ------- null}
+ -t 1.195 -s 0 -d 2 -p cbr -e 210 -c 0 -i 52 -a 0 -x {0.0 2.0 52 ------- null}
- -t 1.195 -s 0 -d 2 -p cbr -e 210 -c 0 -i 52 -a 0 -x {0.0 2.0 52 ------- null}
h -t 1.195 -s 0 -d 2 -p cbr -e 210 -c 0 -i 52 -a 0 -x {0.0 2.0 -1 ------- null}
r -t 1.19834 -s 0 -d 2 -p cbr -e 210 -c 0 -i 50 -a 0 -x {0.0 2.0 50 ------- null}
+ -t 1.19875 -s 0 -d 2 -p cbr -e 210 -c 0 -i 53 -a 0 -x {0.0 2.0 53 ------- null}
- -t 1.19875 -s 0 -d 2 -p cbr -e 210 -c 0 -i 53 -a 0 -x {0.0 2.0 53 ------- null}
h -t 1.19875 -s 0 -d 2 -p cbr -e 210 -c 0 -i 53 -a 0 -x {0.0 2.0 -1 ------- null}
r -t 1.20209 -s 0 -d 2 -p cbr -e 210 -c 0 -i 51 -a 0 -x {0.0 2.0 51 ------- null}
+ -t 1.2025 -s 0 -d 2 -p cbr -e 210 -c 0 -i 54 -a 0 -x {0.0 2.0 54 ------- null}
- -t 1.2025 -s 0 -d 2 -p cbr -e 210 -c 0 -i 54 -a 0 -x {0.0 2.0 54 ------- null}
h -t 1.2025 -s 0 -d 2 -p cbr -e 210 -c 0 -i 54 -a 0 -x {0.0 2.0 -1 ------- null}
r -t 1.20584 -s 0 -d 2 -p cbr -e 210 -c 0 -i 52 -a 0 -x {0.0 2.0 52 ------- null}
+ -t 1.20625 -s 0 -d 2 -p cbr -e 210 -c 0 -i 55 -a 0 -x {0.0 2.0 55 ------- null}
- -t 1.20625 -s 0 -d 2 -p cbr -e 210 -c 0 -i 55 -a 0 -x {0.0 2.0 55 ------- null}
h -t 1.20625 -s 0 -d 2 -p cbr -e 210 -c 0 -i 55 -a 0 -x {0.0 2.0 -1 ------- null}
r -t 1.20959 -s 0 -d 2 -p cbr -e 210 -c 0 -i 53 -a 0 -x {0.0 2.0 53 ------- null}
+ -t 1.21 -s 0 -d 2 -p cbr -e 210 -c 0 -i 56 -a 0 -x {0.0 2.0 56 ------- null}
- -t 1.21 -s 0 -d 2 -p cbr -e 210 -c 0 -i 56 -a 0 -x {0.0 2.0 56 ------- null}
h -t 1.21 -s 0 -d 2 -p cbr -e 210 -c 0 -i 56 -a 0 -x {0.0 2.0 -1 ------- null}
r -t 1.21334 -s 0 -d 2 -p cbr -e 210 -c 0 -i 54 -a 0 -x {0.0 2.0 54 ------- null}
+ -t 1.21375 -s 0 -d 2 -p cbr -e 210 -c 0 -i 57 -a 0 -x {0.0 2.0 57 ------- null}
- -t 1.21375 -s 0 -d 2 -p cbr -e 210 -c 0 -i 57 -a 0 -x {0.0 2.0 57 ------- null}
h -t 1.21375 -s 0 -d 2 -p cbr -e 210 -c 0 -i 57 -a 0 -x {0.0 2.0 -1 ------- null}
r -t 1.21709 -s 0 -d 2 -p cbr -e 210 -c 0 -i 55 -a 0 -x {0.0 2.0 55 ------- null}
+ -t 1.2175 -s 0 -d 2 -p cbr -e 210 -c 0 -i 58 -a 0 -x {0.0 2.0 58 ------- null}
- -t 1.2175 -s 0 -d 2 -p cbr -e 210 -c 0 -i 58 -a 0 -x {0.0 2.0 58 ------- null}
h -t 1.2175 -s 0 -d 2 -p cbr -e 210 -c 0 -i 58 -a 0 -x {0.0 2.0 -1 ------- null}
r -t 1.22084 -s 0 -d 2 -p cbr -e 210 -c 0 -i 56 -a 0 -x {0.0 2.0 56 ------- null}
+ -t 1.22125 -s 0 -d 2 -p cbr -e 210 -c 0 -i 59 -a 0 -x {0.0 2.0 59 ------- null}
- -t 1.22125 -s 0 -d 2 -p cbr -e 210 -c 0 -i 59 -a 0 -x {0.0 2.0 59 ------- null}
h -t 1.22125 -s 0 -d 2 -p cbr -e 210 -c 0 -i 59 -a 0 -x {0.0 2.0 -1 ------- null}
r -t 1.22459 -s 0 -d 2 -p cbr -e 210 -c 0 -i 57 -a 0 -x {0.0 2.0 57 ------- null}
+ -t 1.225 -s 0 -d 2 -p cbr -e 210 -c 0 -i 60 -a 0 -x {0.0 2.0 60 ------- null}
- -t 1.225 -s 0 -d 2 -p cbr -e 210 -c 0 -i 60 -a 0 -x {0.0 2.0 60 ------- null}
h -t 1.225 -s 0 -d 2 -p cbr -e 210 -c 0 -i 60 -a 0 -x {0.0 2.0 -1 ------- null}
r -t 1.22834 -s 0 -d 2 -p cbr -e 210 -c 0 -i 58 -a 0 -x {0.0 2.0 58 ------- null}
+ -t 1.22875 -s 0 -d 2 -p cbr -e 210 -c 0 -i 61 -a 0 -x {0.0 2.0 61 ------- null}
- -t 1.22875 -s 0 -d 2 -p cbr -e 210 -c 0 -i 61 -a 0 -x {0.0 2.0 61 ------- null}
h -t 1.22875 -s 0 -d 2 -p cbr -e 210 -c 0 -i 61 -a 0 -x {0.0 2.0 -1 ------- null}
r -t 1.23209 -s 0 -d 2 -p cbr -e 210 -c 0 -i 59 -a 0 -x {0.0 2.0 59 ------- null}
+ -t 1.2325 -s 0 -d 2 -p cbr -e 210 -c 0 -i 62 -a 0 -x {0.0 2.0 62 ------- null}
- -t 1.2325 -s 0 -d 2 -p cbr -e 210 -c 0 -i 62 -a 0 -x {0.0 2.0 62 ------- null}
h -t 1.2325 -s 0 -d 2 -p cbr -e 210 -c 0 -i 62 -a 0 -x {0.0 2.0 -1 ------- null}
r -t 1.23584 -s 0 -d 2 -p cbr -e 210 -c 0 -i 60 -a 0 -x {0.0 2.0 60 ------- null}
+ -t 1.23624999999999 -s 0 -d 2 -p cbr -e 210 -c 0 -i 63 -a 0 -x {0.0 2.0 63 ------- null}
- -t 1.23624999999999 -s 0 -d 2 -p cbr -e 210 -c 0 -i 63 -a 0 -x {0.0 2.0 63 ------- null}
h -t 1.23624999999999 -s 0 -d 2 -p cbr -e 210 -c 0 -i 63 -a 0 -x {0.0 2.0 -1 ------- null}
r -t 1.23959 -s 0 -d 2 -p cbr -e 210 -c 0 -i 61 -a 0 -x {0.0 2.0 61 ------- null}
+ -t 1.23999999999999 -s 0 -d 2 -p cbr -e 210 -c 0 -i 64 -a 0 -x {0.0 2.0 64 ------- null}
- -t 1.23999999999999 -s 0 -d 2 -p cbr -e 210 -c 0 -i 64 -a 0 -x {0.0 2.0 64 ------- null}
h -t 1.23999999999999 -s 0 -d 2 -p cbr -e 210 -c 0 -i 64 -a 0 -x {0.0 2.0 -1 ------- null}
r -t 1.24334 -s 0 -d 2 -p cbr -e 210 -c 0 -i 62 -a 0 -x {0.0 2.0 62 ------- null}
+ -t 1.24374999999999 -s 0 -d 2 -p cbr -e 210 -c 0 -i 65 -a 0 -x {0.0 2.0 65 ------- null}
- -t 1.24374999999999 -s 0 -d 2 -p cbr -e 210 -c 0 -i 65 -a 0 -x {0.0 2.0 65 ------- null}
h -t 1.24374999999999 -s 0 -d 2 -p cbr -e 210 -c 0 -i 65 -a 0 -x {0.0 2.0 -1 ------- null}
r -t 1.24708999999999 -s 0 -d 2 -p cbr -e 210 -c 0 -i 63 -a 0 -x {0.0 2.0 63 ------- null}
+ -t 1.24749999999999 -s 0 -d 2 -p cbr -e 210 -c 0 -i 66 -a 0 -x {0.0 2.0 66 ------- null}
- -t 1.24749999999999 -s 0 -d 2 -p cbr -e 210 -c 0 -i 66 -a 0 -x {0.0 2.0 66 ------- null}
h -t 1.24749999999999 -s 0 -d 2 -p cbr -e 210 -c 0 -i 66 -a 0 -x {0.0 2.0 -1 ------- null}
r -t 1.25083999999999 -s 0 -d 2 -p cbr -e 210 -c 0 -i 64 -a 0 -x {0.0 2.0 64 ------- null}
+ -t 1.25124999999999 -s 0 -d 2 -p cbr -e 210 -c 0 -i 67 -a 0 -x {0.0 2.0 67 ------- null}
- -t 1.25124999999999 -s 0 -d 2 -p cbr -e 210 -c 0 -i 67 -a 0 -x {0.0 2.0 67 ------- null}
h -t 1.25124999999999 -s 0 -d 2 -p cbr -e 210 -c 0 -i 67 -a 0 -x {0.0 2.0 -1 ------- null}
r -t 1.25458999999999 -s 0 -d 2 -p cbr -e 210 -c 0 -i 65 -a 0 -x {0.0 2.0 65 ------- null}
+ -t 1.25499999999999 -s 0 -d 2 -p cbr -e 210 -c 0 -i 68 -a 0 -x {0.0 2.0 68 ------- null}
- -t 1.25499999999999 -s 0 -d 2 -p cbr -e 210 -c 0 -i 68 -a 0 -x {0.0 2.0 68 ------- null}
h -t 1.25499999999999 -s 0 -d 2 -p cbr -e 210 -c 0 -i 68 -a 0 -x {0.0 2.0 -1 ------- null}
r -t 1.25833999999999 -s 0 -d 2 -p cbr -e 210 -c 0 -i 66 -a 0 -x {0.0 2.0 66 ------- null}
+ -t 1.25874999999999 -s 0 -d 2 -p cbr -e 210 -c 0 -i 69 -a 0 -x {0.0 2.0 69 ------- null}
- -t 1.25874999999999 -s 0 -d 2 -p cbr -e 210 -c 0 -i 69 -a 0 -x {0.0 2.0 69 ------- null}
h -t 1.25874999999999 -s 0 -d 2 -p cbr -e 210 -c 0 -i 69 -a 0 -x {0.0 2.0 -1 ------- null}
r -t 1.26208999999999 -s 0 -d 2 -p cbr -e 210 -c 0 -i 67 -a 0 -x {0.0 2.0 67 ------- null}
+ -t 1.26249999999999 -s 0 -d 2 -p cbr -e 210 -c 0 -i 70 -a 0 -x {0.0 2.0 70 ------- null}
- -t 1.26249999999999 -s 0 -d 2 -p cbr -e 210 -c 0 -i 70 -a 0 -x {0.0 2.0 70 ------- null}
h -t 1.26249999999999 -s 0 -d 2 -p cbr -e 210 -c 0 -i 70 -a 0 -x {0.0 2.0 -1 ------- null}
r -t 1.26583999999999 -s 0 -d 2 -p cbr -e 210 -c 0 -i 68 -a 0 -x {0.0 2.0 68 ------- null}
+ -t 1.26624999999999 -s 0 -d 2 -p cbr -e 210 -c 0 -i 71 -a 0 -x {0.0 2.0 71 ------- null}
- -t 1.26624999999999 -s 0 -d 2 -p cbr -e 210 -c 0 -i 71 -a 0 -x {0.0 2.0 71 ------- null}
h -t 1.26624999999999 -s 0 -d 2 -p cbr -e 210 -c 0 -i 71 -a 0 -x {0.0 2.0 -1 ------- null}
r -t 1.26958999999999 -s 0 -d 2 -p cbr -e 210 -c 0 -i 69 -a 0 -x {0.0 2.0 69 ------- null}
+ -t 1.26999999999999 -s 0 -d 2 -p cbr -e 210 -c 0 -i 72 -a 0 -x {0.0 2.0 72 ------- null}
- -t 1.26999999999999 -s 0 -d 2 -p cbr -e 210 -c 0 -i 72 -a 0 -x {0.0 2.0 72 ------- null}
h -t 1.26999999999999 -s 0 -d 2 -p cbr -e 210 -c 0 -i 72 -a 0 -x {0.0 2.0 -1 ------- null}
r -t 1.27333999999999 -s 0 -d 2 -p cbr -e 210 -c 0 -i 70 -a 0 -x {0.0 2.0 70 ------- null}
+ -t 1.27374999999999 -s 0 -d 2 -p cbr -e 210 -c 0 -i 73 -a 0 -x {0.0 2.0 73 ------- null}
- -t 1.27374999999999 -s 0 -d 2 -p cbr -e 210 -c 0 -i 73 -a 0 -x {0.0 2.0 73 ------- null}
h -t 1.27374999999999 -s 0 -d 2 -p cbr -e 210 -c 0 -i 73 -a 0 -x {0.0 2.0 -1 ------- null}
r -t 1.27708999999999 -s 0 -d 2 -p cbr -e 210 -c 0 -i 71 -a 0 -x {0.0 2.0 71 ------- null}
+ -t 1.27749999999999 -s 0 -d 2 -p cbr -e 210 -c 0 -i 74 -a 0 -x {0.0 2.0 74 ------- null}
- -t 1.27749999999999 -s 0 -d 2 -p cbr -e 210 -c 0 -i 74 -a 0 -x {0.0 2.0 74 ------- null}
h -t 1.27749999999999 -s 0 -d 2 -p cbr -e 210 -c 0 -i 74 -a 0 -x {0.0 2.0 -1 ------- null}
r -t 1.28083999999999 -s 0 -d 2 -p cbr -e 210 -c 0 -i 72 -a 0 -x {0.0 2.0 72 ------- null}
+ -t 1.28124999999999 -s 0 -d 2 -p cbr -e 210 -c 0 -i 75 -a 0 -x {0.0 2.0 75 ------- null}
- -t 1.28124999999999 -s 0 -d 2 -p cbr -e 210 -c 0 -i 75 -a 0 -x {0.0 2.0 75 ------- null}
h -t 1.28124999999999 -s 0 -d 2 -p cbr -e 210 -c 0 -i 75 -a 0 -x {0.0 2.0 -1 ------- null}
r -t 1.28458999999999 -s 0 -d 2 -p cbr -e 210 -c 0 -i 73 -a 0 -x {0.0 2.0 73 ------- null}
+ -t 1.28499999999999 -s 0 -d 2 -p cbr -e 210 -c 0 -i 76 -a 0 -x {0.0 2.0 76 ------- null}
- -t 1.28499999999999 -s 0 -d 2 -p cbr -e 210 -c 0 -i 76 -a 0 -x {0.0 2.0 76 ------- null}
h -t 1.28499999999999 -s 0 -d 2 -p cbr -e 210 -c 0 -i 76 -a 0 -x {0.0 2.0 -1 ------- null}
r -t 1.28833999999999 -s 0 -d 2 -p cbr -e 210 -c 0 -i 74 -a 0 -x {0.0 2.0 74 ------- null}
+ -t 1.28874999999999 -s 0 -d 2 -p cbr -e 210 -c 0 -i 77 -a 0 -x {0.0 2.0 77 ------- null}
- -t 1.28874999999999 -s 0 -d 2 -p cbr -e 210 -c 0 -i 77 -a 0 -x {0.0 2.0 77 ------- null}
h -t 1.28874999999999 -s 0 -d 2 -p cbr -e 210 -c 0 -i 77 -a 0 -x {0.0 2.0 -1 ------- null}
r -t 1.29208999999999 -s 0 -d 2 -p cbr -e 210 -c 0 -i 75 -a 0 -x {0.0 2.0 75 ------- null}
+ -t 1.29249999999999 -s 0 -d 2 -p cbr -e 210 -c 0 -i 78 -a 0 -x {0.0 2.0 78 ------- null}
- -t 1.29249999999999 -s 0 -d 2 -p cbr -e 210 -c 0 -i 78 -a 0 -x {0.0 2.0 78 ------- null}
h -t 1.29249999999999 -s 0 -d 2 -p cbr -e 210 -c 0 -i 78 -a 0 -x {0.0 2.0 -1 ------- null}
r -t 1.29583999999999 -s 0 -d 2 -p cbr -e 210 -c 0 -i 76 -a 0 -x {0.0 2.0 76 ------- null}
+ -t 1.29624999999999 -s 0 -d 2 -p cbr -e 210 -c 0 -i 79 -a 0 -x {0.0 2.0 79 ------- null}
- -t 1.29624999999999 -s 0 -d 2 -p cbr -e 210 -c 0 -i 79 -a 0 -x {0.0 2.0 79 ------- null}
h -t 1.29624999999999 -s 0 -d 2 -p cbr -e 210 -c 0 -i 79 -a 0 -x {0.0 2.0 -1 ------- null}
r -t 1.29958999999999 -s 0 -d 2 -p cbr -e 210 -c 0 -i 77 -a 0 -x {0.0 2.0 77 ------- null}
+ -t 1.29999999999999 -s 0 -d 2 -p cbr -e 210 -c 0 -i 80 -a 0 -x {0.0 2.0 80 ------- null}
- -t 1.29999999999999 -s 0 -d 2 -p cbr -e 210 -c 0 -i 80 -a 0 -x {0.0 2.0 80 ------- null}
h -t 1.29999999999999 -s 0 -d 2 -p cbr -e 210 -c 0 -i 80 -a 0 -x {0.0 2.0 -1 ------- null}
r -t 1.30333999999999 -s 0 -d 2 -p cbr -e 210 -c 0 -i 78 -a 0 -x {0.0 2.0 78 ------- null}
+ -t 1.30374999999999 -s 0 -d 2 -p cbr -e 210 -c 0 -i 81 -a 0 -x {0.0 2.0 81 ------- null}
- -t 1.30374999999999 -s 0 -d 2 -p cbr -e 210 -c 0 -i 81 -a 0 -x {0.0 2.0 81 ------- null}
h -t 1.30374999999999 -s 0 -d 2 -p cbr -e 210 -c 0 -i 81 -a 0 -x {0.0 2.0 -1 ------- null}
r -t 1.30708999999999 -s 0 -d 2 -p cbr -e 210 -c 0 -i 79 -a 0 -x {0.0 2.0 79 ------- null}
+ -t 1.30749999999999 -s 0 -d 2 -p cbr -e 210 -c 0 -i 82 -a 0 -x {0.0 2.0 82 ------- null}
- -t 1.30749999999999 -s 0 -d 2 -p cbr -e 210 -c 0 -i 82 -a 0 -x {0.0 2.0 82 ------- null}
h -t 1.30749999999999 -s 0 -d 2 -p cbr -e 210 -c 0 -i 82 -a 0 -x {0.0 2.0 -1 ------- null}
r -t 1.31083999999999 -s 0 -d 2 -p cbr -e 210 -c 0 -i 80 -a 0 -x {0.0 2.0 80 ------- null}
+ -t 1.31124999999999 -s 0 -d 2 -p cbr -e 210 -c 0 -i 83 -a 0 -x {0.0 2.0 83 ------- null}
- -t 1.31124999999999 -s 0 -d 2 -p cbr -e 210 -c 0 -i 83 -a 0 -x {0.0 2.0 83 ------- null}
h -t 1.31124999999999 -s 0 -d 2 -p cbr -e 210 -c 0 -i 83 -a 0 -x {0.0 2.0 -1 ------- null}
r -t 1.31458999999999 -s 0 -d 2 -p cbr -e 210 -c 0 -i 81 -a 0 -x {0.0 2.0 81 ------- null}
+ -t 1.31499999999999 -s 0 -d 2 -p cbr -e 210 -c 0 -i 84 -a 0 -x {0.0 2.0 84 ------- null}
- -t 1.31499999999999 -s 0 -d 2 -p cbr -e 210 -c 0 -i 84 -a 0 -x {0.0 2.0 84 ------- null}
h -t 1.31499999999999 -s 0 -d 2 -p cbr -e 210 -c 0 -i 84 -a 0 -x {0.0 2.0 -1 ------- null}
r -t 1.31833999999999 -s 0 -d 2 -p cbr -e 210 -c 0 -i 82 -a 0 -x {0.0 2.0 82 ------- null}
+ -t 1.31874999999999 -s 0 -d 2 -p cbr -e 210 -c 0 -i 85 -a 0 -x {0.0 2.0 85 ------- null}
- -t 1.31874999999999 -s 0 -d 2 -p cbr -e 210 -c 0 -i 85 -a 0 -x {0.0 2.0 85 ------- null}
h -t 1.31874999999999 -s 0 -d 2 -p cbr -e 210 -c 0 -i 85 -a 0 -x {0.0 2.0 -1 ------- null}
r -t 1.32208999999999 -s 0 -d 2 -p cbr -e 210 -c 0 -i 83 -a 0 -x {0.0 2.0 83 ------- null}
+ -t 1.32249999999999 -s 0 -d 2 -p cbr -e 210 -c 0 -i 86 -a 0 -x {0.0 2.0 86 ------- null}
- -t 1.32249999999999 -s 0 -d 2 -p cbr -e 210 -c 0 -i 86 -a 0 -x {0.0 2.0 86 ------- null}
h -t 1.32249999999999 -s 0 -d 2 -p cbr -e 210 -c 0 -i 86 -a 0 -x {0.0 2.0 -1 ------- null}
r -t 1.32583999999999 -s 0 -d 2 -p cbr -e 210 -c 0 -i 84 -a 0 -x {0.0 2.0 84 ------- null}
+ -t 1.32624999999999 -s 0 -d 2 -p cbr -e 210 -c 0 -i 87 -a 0 -x {0.0 2.0 87 ------- null}
- -t 1.32624999999999 -s 0 -d 2 -p cbr -e 210 -c 0 -i 87 -a 0 -x {0.0 2.0 87 ------- null}
h -t 1.32624999999999 -s 0 -d 2 -p cbr -e 210 -c 0 -i 87 -a 0 -x {0.0 2.0 -1 ------- null}
r -t 1.32958999999999 -s 0 -d 2 -p cbr -e 210 -c 0 -i 85 -a 0 -x {0.0 2.0 85 ------- null}
+ -t 1.32999999999999 -s 0 -d 2 -p cbr -e 210 -c 0 -i 88 -a 0 -x {0.0 2.0 88 ------- null}
- -t 1.32999999999999 -s 0 -d 2 -p cbr -e 210 -c 0 -i 88 -a 0 -x {0.0 2.0 88 ------- null}